   62   62  200    1
  0.8638705E+01  0.8133417E-09  0.8114909E-09  0.8114909E-09  0.1000000E-14
   1600.00000000000     
  CAR 
 LiF                                     
    314      1    192
