 vasp.5.4.4.18Apr17-6-g9f103f2a35 (build Oct 18 2021 17:02:20) complex          
  
 executed on             LinuxIFC date 2023.06.13  17:36:18
 running on   16 total cores
 distrk:  each k-point on   16 cores,    1 groups
 distr:  one band on NCORES_PER_BAND=   4 cores,    4 groups


--------------------------------------------------------------------------------------------------------


 INCAR:
 POTCAR:    PAW_PBE F 08Apr2002                   
 POTCAR:    PAW_PBE Li_sv 10Sep2004               
 POTCAR:    PAW_PBE F 08Apr2002                   
  local pseudopotential read in
  partial core-charges read in
  partial kinetic energy density read in
  atomic valenz-charges read in
  non local Contribution for L=           0  read in
    real space projection operators read in
  non local Contribution for L=           0  read in
    real space projection operators read in
  non local Contribution for L=           1  read in
    real space projection operators read in
  non local Contribution for L=           1  read in
    real space projection operators read in
    PAW grid and wavefunctions read in
 
   number of l-projection  operators is LMAX  =           4
   number of lm-projection operators is LMMAX =           8
 
 POTCAR:    PAW_PBE Li_sv 10Sep2004               
  local pseudopotential read in
  atomic valenz-charges read in
  non local Contribution for L=           0  read in
    real space projection operators read in
  non local Contribution for L=           0  read in
    real space projection operators read in
  non local Contribution for L=           1  read in
    real space projection operators read in
    PAW grid and wavefunctions read in
 
   number of l-projection  operators is LMAX  =           3
   number of lm-projection operators is LMMAX =           5
 
 Optimization of the real space projectors (new method)

 maximal supplied QI-value         = 24.76
 optimisation between [QCUT,QGAM] = [ 11.64, 23.27] = [ 37.91,151.63] Ry 
 Optimized for a Real-space Cutoff    1.01 Angstroem

   l    n(q)    QCUT    max X(q) W(low)/X(q) W(high)/X(q)  e(spline) 
   0      7    11.635    14.049    0.17E-03    0.54E-03    0.12E-06
   0      7    11.635     8.945    0.24E-03    0.71E-03    0.17E-06
   1      6    11.635     7.086    0.49E-03    0.33E-03    0.19E-06
   1      6    11.635     6.747    0.48E-03    0.27E-03    0.17E-06
 Optimization of the real space projectors (new method)

 maximal supplied QI-value         = 22.11
 optimisation between [QCUT,QGAM] = [ 11.50, 23.22] = [ 37.02,150.92] Ry 
 Optimized for a Real-space Cutoff    0.93 Angstroem

   l    n(q)    QCUT    max X(q) W(low)/X(q) W(high)/X(q)  e(spline) 
   0      6    11.497    10.506    0.79E-04    0.25E-03    0.29E-07
   0      6    11.497     8.367    0.15E-03    0.55E-03    0.58E-07
   1      6    11.497     8.983    0.40E-03    0.10E-02    0.51E-07
  PAW_PBE F 08Apr2002                   :
 energy of atom  1       EATOM= -659.6475
 kinetic energy error for atom=    0.0323 (will be added to EATOM!!)
  PAW_PBE Li_sv 10Sep2004               :
 energy of atom  2       EATOM= -202.7858
 kinetic energy error for atom=    0.0130 (will be added to EATOM!!)
 
 
 POSCAR: vasp                                    
  positions in cartesian coordinates
  velocities in cartesian coordinates
 exchange correlation table for  LEXCH =        8
   RHO(1)=    0.500       N(1)  =     2000
   RHO(2)=  100.500       N(2)  =     4000

 VTST: version 3.2, (02/03/18)

 CHAIN: initializing optimizer
 
 OPT: Using VASP Dynamics algorithm
 CHAIN: Read ICHAIN            0
 
 POSCAR: vasp                                    
  positions in cartesian coordinates
  velocities in cartesian coordinates
 


--------------------------------------------------------------------------------------------------------



 ----------------------------------------------------------------------------- 
|                                                                             |
|           W    W    AA    RRRRR   N    N  II  N    N   GGGG   !!!           |
|           W    W   A  A   R    R  NN   N  II  NN   N  G    G  !!!           |
|           W    W  A    A  R    R  N N  N  II  N N  N  G       !!!           |
|           W WW W  AAAAAA  RRRRR   N  N N  II  N  N N  G  GGG   !            |
|           WW  WW  A    A  R   R   N   NN  II  N   NN  G    G                |
|           W    W  A    A  R    R  N    N  II  N    N   GGGG   !!!           |
|                                                                             |
|      The initial velocities result in a center of mass drift but            |
|      there must be no drift.                                                |
|      The drift will be removed !                                            |
|                                                                             |
 ----------------------------------------------------------------------------- 

 ion  position               nearest neighbor table
   1  0.046  0.847  0.422-  38 1.74  35 1.95  43 2.14  53 2.19
   2  0.151  0.566  0.544-  49 1.82  38 1.95  50 2.15  51 2.19
   3  0.321  0.820  0.812-  48 1.70  61 2.20
   4  0.923  0.455  0.710-  45 1.84  50 1.93  49 2.16  40 2.25
   5  0.482  0.485  0.832-  42 1.60  51 1.75  60 1.75  40 1.84
   6  0.760  0.008  0.992-  62 1.77  57 1.83  56 2.14  55 2.15
   7  0.754  0.213  0.302-  56 1.76  47 1.76  39 2.03  37 2.05  44 2.21
   8  0.522  0.028  0.274-  59 1.74  41 1.94  55 1.95  47 2.08
   9  0.499  0.289  0.079-  42 1.72  33 1.78  47 1.88  55 2.19
  10  0.019  0.677  0.910-  50 1.59  54 1.78  48 1.94  36 2.02  62 2.24
  11  0.743  0.974  0.474-  56 1.90  35 2.02  59 2.10  46 2.24
  12  0.521  0.084  0.768-  46 1.63  61 1.70  60 1.85  55 2.23
  13  0.511  0.303  0.486-  47 1.50  60 1.86  39 1.93  58 2.16  34 2.20
  14  0.750  0.468  0.957-  36 1.81  57 1.96  37 2.00  40 2.09  42 2.09
  15  0.715  0.680  0.166-  36 1.71  37 1.95  53 2.08  41 2.09
  16  0.436  0.583  0.257-  34 1.68  41 1.78  52 1.87  42 2.08
  17  0.569  0.804  0.984-  55 1.91  36 1.93
  18  0.739  0.491  0.442-  53 1.90  37 1.97  39 1.98
  19  0.771  0.753  0.744-  40 1.74  46 1.78  36 1.86  50 1.87
  20  0.830  0.091  0.782-  46 1.94  35 2.02  62 2.14  45 2.14  57 2.20
  21  0.967  0.519  0.268-  49 1.80  37 1.92  52 2.02  53 2.21  54 2.23
  22  0.462  0.722  0.579-  34 1.62  38 2.17
  23  0.260  0.524  0.020-  52 1.82  54 1.84  51 1.97  42 2.00  33 2.03
  24  0.266  0.774  0.270-  43 1.71  41 1.95  52 2.08
  25  0.995  0.258  0.989-  44 1.76  57 1.81  54 1.84  45 1.97
  26  0.305  0.054  0.503-  59 1.57  58 1.65  43 2.06  38 2.25
  27  0.256  0.293  0.761-  61 1.78  45 1.86  60 2.00  51 2.03
  28  0.146  0.936  0.691-  38 1.66  35 1.76  61 2.14
  29  0.209  0.252  0.264-  44 1.77  58 1.81  33 1.83  43 2.22  52 2.22
  30  0.010  0.203  0.534-  45 1.81  49 1.83  35 1.85  58 2.03
  31  0.012  0.963  0.146-  62 1.62  56 1.90  43 2.00  44 2.03
  32  0.255  0.048  0.055-  33 1.86  43 1.89  55 2.01  61 2.03  48 2.10
  33  0.281  0.276  0.052-   9 1.78  29 1.83  32 1.86  23 2.03  61 2.45  42 2.54  52 2.58  44 2.60
                            54 2.60
  34  0.437  0.562  0.462-  22 1.62  16 1.68  13 2.20  41 2.50  52 2.58
  35  0.960  0.989  0.596-  28 1.76  30 1.85   1 1.95  20 2.02  11 2.02  38 2.57  45 2.59
  36  0.777  0.690  0.965-  15 1.71  14 1.81  19 1.86  17 1.93  10 2.02  40 2.31  62 2.56
  37  0.752  0.446  0.203-  21 1.92  15 1.95  18 1.97  14 2.00   7 2.05  47 2.29  57 2.37  42 2.50

  38  0.208  0.799  0.553-  28 1.66   1 1.74   2 1.95  22 2.17  26 2.25  50 2.42  35 2.57
  39  0.738  0.269  0.545-  13 1.93  18 1.98   7 2.03  60 2.41  47 2.48  49 2.59
  40  0.670  0.564  0.732-  19 1.74   5 1.84  14 2.09   4 2.25  36 2.31  60 2.54
  41  0.506  0.790  0.267-  16 1.78   8 1.94  24 1.95  15 2.09  59 2.40  34 2.50
  42  0.504  0.494  0.027-   5 1.60   9 1.72  23 2.00  16 2.08  14 2.09  37 2.50  33 2.54
  43  0.221  0.979  0.275-  24 1.71  32 1.89  31 2.00  26 2.06   1 2.14  29 2.22
  44  0.006  0.208  0.200-  25 1.76  29 1.77  31 2.03   7 2.21  56 2.32  57 2.46  33 2.60
  45  0.030  0.259  0.749-  30 1.81   4 1.84  27 1.86  25 1.97  20 2.14  35 2.59
  46  0.653  0.938  0.733-  12 1.63  19 1.78  20 1.94  11 2.24  59 2.49
  47  0.548  0.281  0.306-  13 1.50   7 1.76   9 1.88   8 2.08  37 2.29  39 2.48
  48  0.206  0.803  0.987-   3 1.70  10 1.94  32 2.10  62 2.29
  49  0.008  0.416  0.461-  21 1.80   2 1.82  30 1.83   4 2.16  58 2.40  39 2.59
  50  0.988  0.684  0.716-  10 1.59  19 1.87   4 1.93   2 2.15  38 2.42
  51  0.282  0.541  0.779-   5 1.75  23 1.97  27 2.03   2 2.19
  52  0.214  0.524  0.239-  23 1.82  16 1.87  21 2.02  24 2.08  29 2.22  54 2.40  34 2.58  33 2.58

  53  0.818  0.706  0.398-  18 1.90  15 2.08   1 2.19  21 2.21
  54  0.038  0.480  0.006-  10 1.78  23 1.84  25 1.84  21 2.23  52 2.40  33 2.60
  55  0.500  0.022  0.034-  17 1.91   8 1.95  32 2.01   6 2.15   9 2.19  12 2.23  61 2.37
  56  0.808  0.009  0.252-   7 1.76  11 1.90  31 1.90   6 2.14  44 2.32
  57  0.775  0.233  0.006-  25 1.81   6 1.83  14 1.96  20 2.20  37 2.37  44 2.46
  58  0.250  0.249  0.483-  26 1.65  29 1.81  30 2.03  13 2.16  49 2.40
  59  0.486  0.993  0.482-  26 1.57   8 1.74  11 2.10  41 2.40  46 2.49
  60  0.498  0.304  0.716-   5 1.75  12 1.85  13 1.86  27 2.00  61 2.41  39 2.41  40 2.54
  61  0.318  0.091  0.817-  12 1.70  27 1.78  32 2.03  28 2.14   3 2.20  55 2.37  60 2.41  33 2.45

  62  0.964  0.943  0.953-  31 1.62   6 1.77  20 2.14  10 2.24  48 2.29  36 2.56
 
  LATTYP: Found a simple tetragonal cell.
 ALAT       =     8.1149090000
 C/A-ratio  =     1.0022807403
  
  Lattice vectors:
  
 A1 = (   0.0000000000,   8.1149090000,   0.0000000000)
 A2 = (   0.0000000000,   0.0000000000,  -8.1149090000)
 A3 = (  -8.1334170000,   0.0000000000,   0.0000000000)


Analysis of symmetry for initial positions (statically):
=====================================================================
 Subroutine PRICEL returns:
 Original cell was already a primitive cell.
 

 Routine SETGRP: Setting up the symmetry group for a 
 simple tetragonal supercell.


 Subroutine GETGRP returns: Found  1 space group operations
 (whereof  1 operations were pure point group operations)
 out of a pool of 16 trial point group operations.


The static configuration has the point symmetry C_1 .


Analysis of symmetry for dynamics (positions and initial velocities):
=====================================================================
 Subroutine PRICEL returns:
 Original cell was already a primitive cell.
 

 Routine SETGRP: Setting up the symmetry group for a 
 simple tetragonal supercell.


 Subroutine GETGRP returns: Found  1 space group operations
 (whereof  1 operations were pure point group operations)
 out of a pool of 16 trial point group operations.


The dynamic configuration has the point symmetry C_1 .


 Subroutine INISYM returns: Found  1 space group operations
 (whereof  1 operations are pure point group operations),
 and found     1 'primitive' translations

 
 
 KPOINTS: K-Spacing Value to Generate K-Mesh: 0.10

Automatic generation of k-mesh.
Space group operators:
 irot       det(A)        alpha          n_x          n_y          n_z        tau_x        tau_y        tau_z
    1     1.000000     0.000001     1.000000     0.000000     0.000000     0.000000     0.000000     0.000000
 
 Subroutine IBZKPT returns following result:
 ===========================================
 
 Found      1 irreducible k-points:
 
 Following reciprocal coordinates:
            Coordinates               Weight
  0.000000  0.000000  0.000000      1.000000
 
 Following cartesian coordinates:
            Coordinates               Weight
  0.000000  0.000000  0.000000      1.000000
 


--------------------------------------------------------------------------------------------------------




 Dimension of arrays:
   k-points           NKPTS =      1   k-points in BZ     NKDIM =      1   number of bands    NBANDS=    192
   number of dos      NEDOS =    301   number of ions     NIONS =     62
   non local maximal  LDIM  =      4   non local SUM 2l+1 LMDIM =      8
   total plane-waves  NPLWV = 110592
   max r-space proj   IRMAX =    951   max aug-charges    IRDMAX=  21199
   dimension x,y,z NGX =    48 NGY =   48 NGZ =   48
   dimension x,y,z NGXF=    96 NGYF=   96 NGZF=   96
   support grid    NGXF=   192 NGYF=  192 NGZF=  192
   ions per type =              32  30
   NGX,Y,Z   is equivalent  to a cutoff of   9.81,  9.83,  9.83 a.u.
   NGXF,Y,Z  is equivalent  to a cutoff of  19.62, 19.67, 19.67 a.u.

 SYSTEM =  LiF                                     
 POSCAR =  vasp                                    

 Startparameter for this run:
   NWRITE =      0    write-flag & timer
   PREC   = normal    normal or accurate (medium, high low for compatibility)
   ISTART =      0    job   : 0-new  1-cont  2-samecut
   ICHARG =      2    charge: 1-file 2-atom 10-const
   ISPIN  =      1    spin polarized calculation?
   LNONCOLLINEAR =      F non collinear calculations
   LSORBIT =      F    spin-orbit coupling
   INIWAV =      1    electr: 0-lowe 1-rand  2-diag
   LASPH  =      F    aspherical Exc in radial PAW
   METAGGA=      F    non-selfconsistent MetaGGA calc.

 Electronic Relaxation 1
   ENCUT  =  520.0 eV  38.22 Ry    6.18 a.u.  15.12 15.09 15.09*2*pi/ulx,y,z
   ENINI  =  520.0     initial cutoff
   ENAUG  =  628.9 eV  augmentation charge cutoff
   NELM   =     60;   NELMIN=  4; NELMDL=  0     # of ELM steps 
   EDIFF  = 0.1E-04   stopping-criterion for ELM
   LREAL  =      T    real-space projection
   NLSPLINE    = F    spline interpolate recip. space projectors
   LCOMPAT=      F    compatible to vasp.4.4
   GGA_COMPAT  = T    GGA compatible to vasp.4.4-vasp.4.6
   LMAXPAW     = -100 max onsite density
   LMAXMIX     =    2 max onsite mixed and CHGCAR
   VOSKOWN=      0    Vosko Wilk Nusair interpolation
   ROPT   =   -0.00050  -0.00050
 Ionic relaxation
   EDIFFG = 0.1E-03   stopping-criterion for IOM
   NSW    =    200    number of steps for IOM
   NBLOCK =      1;   KBLOCK =    200    inner block; outer block 
   IBRION =      0    ionic relax: 0-MD 1-quasi-New 2-CG
   NFREE  =      0    steps in history (QN), initial steepest desc. (CG)
   ISIF   =      2    stress and relaxation
   IWAVPR =     12    prediction:  0-non 1-charg 2-wave 3-comb
   ISYM   =      2    0-nonsym 1-usesym 2-fastsym
   LCORR  =      T    Harris-Foulkes like correction to forces

   POTIM  = 1.0000    time-step for ionic-motion
   TEIN   = 1124.1    initial temperature
   TEBEG  = 1600.0;   TEEND  =1600.0 temperature during run
   SMASS  =   1.00    Nose mass-parameter (am)
   estimated Nose-frequenzy (Omega)   =  0.86E+14 period in steps = 73.24 mass=   0.504E-27a.u.
   SCALEE = 1.0000    scale energy and forces
   NPACO  =    256;   APACO  = 16.0  distance and # of slots for P.C.
   PSTRESS=    0.0 pullay stress

  Mass of Ions in am
   POMASS =  19.00  7.01
  Ionic Valenz
   ZVAL   =   7.00  3.00
  Atomic Wigner-Seitz radii
   RWIGS  =  -1.00 -1.00
  virtual crystal weights 
   VCA    =   1.00  1.00
   NELECT =     314.0000    total number of electrons
   NUPDOWN=      -1.0000    fix difference up-down

 DOS related values:
   EMIN   =  10.00;   EMAX   =-10.00  energy-range for DOS
   EFERMI =   0.00
   ISMEAR =     0;   SIGMA  =   0.10  broadening in eV -4-tet -1-fermi 0-gaus

 Electronic relaxation 2 (details)
   IALGO  =     38    algorithm
   LDIAG  =      T    sub-space diagonalisation (order eigenvalues)
   LSUBROT=      F    optimize rotation matrix (better conditioning)
   TURBO    =      0    0=normal 1=particle mesh
   IRESTART =      0    0=no restart 2=restart with 2 vectors
   NREBOOT  =      0    no. of reboots
   NMIN     =      0    reboot dimension
   EREF     =   0.00    reference energy to select bands
   IMIX   =      4    mixing-type and parameters
     AMIX     =   0.40;   BMIX     =  1.00
     AMIX_MAG =   1.60;   BMIX_MAG =  1.00
     AMIN     =   0.10
     WC   =   100.;   INIMIX=   1;  MIXPRE=   1;  MAXMIX= -45

 Intra band minimization:
   WEIMIN = 0.0010     energy-eigenvalue tresh-hold
   EBREAK =  0.13E-07  absolut break condition
   DEPER  =   0.30     relativ break condition  

   TIME   =   0.40     timestep for ELM

  volume/ion in A,a.u.               =       8.64        58.30
  Fermi-wavevector in a.u.,A,eV,Ry     =   1.370160  2.589227 25.542738  1.877338
  Thomas-Fermi vector in A             =   2.495971
 
 Write flags
   LWAVE        =      F    write WAVECAR
   LDOWNSAMPLE  =      F    k-point downsampling of WAVECAR
   LCHARG       =      F    write CHGCAR
   LVTOT        =      F    write LOCPOT, total local potential
   LVHAR        =      F    write LOCPOT, Hartree potential only
   LELF         =      F    write electronic localiz. function (ELF)
   LORBIT       =      0    0 simple, 1 ext, 2 COOP (PROOUT), +10 PAW based schemes


 Dipole corrections
   LMONO  =      F    monopole corrections only (constant potential shift)
   LDIPOL =      F    correct potential (dipole corrections)
   IDIPOL =      0    1-x, 2-y, 3-z, 4-all directions 
   EPSILON=  1.0000000 bulk dielectric constant

 Exchange correlation treatment:
   GGA     =    --    GGA type
   LEXCH   =     8    internal setting for exchange type
   VOSKOWN=      0    Vosko Wilk Nusair interpolation
   LHFCALC =     F    Hartree Fock is set to
   LHFONE  =     F    Hartree Fock one center treatment
   AEXX    =    0.0000 exact exchange contribution

 Linear response parameters
   LEPSILON=     F    determine dielectric tensor
   LRPA    =     F    only Hartree local field effects (RPA)
   LNABLA  =     F    use nabla operator in PAW spheres
   LVEL    =     F    velocity operator in full k-point grid
   LINTERFAST=   F  fast interpolation
   KINTER  =     0    interpolate to denser k-point grid
   CSHIFT  =0.1000    complex shift for real part using Kramers Kronig
   OMEGAMAX=  -1.0    maximum frequency
   DEG_THRESHOLD= 0.2000000E-02 threshold for treating states as degnerate
   RTIME   =   -0.100 relaxation time in fs
  (WPLASMAI=    0.000 imaginary part of plasma frequency in eV, 0.658/RTIME)
   DFIELD  = 0.0000000 0.0000000 0.0000000 field for delta impulse in time
 
 Orbital magnetization related:
   ORBITALMAG=     F  switch on orbital magnetization
   LCHIMAG   =     F  perturbation theory with respect to B field
   DQ        =  0.001000  dq finite difference perturbation B field
   LLRAUG    =     F  two centre corrections for induced B field



--------------------------------------------------------------------------------------------------------


 molecular dynamics for ions
   using nose mass (canonical ensemble)
 charge density and potential will be updated during run
 non-spin polarized calculation
 Variant of blocked Davidson
 Davidson routine will perform the subspace rotation
 perform sub-space diagonalisation
    after iterative eigenvector-optimisation
 modified Broyden-mixing scheme, WC =      100.0
 initial mixing is a Kerker type mixing with AMIX =  0.4000 and BMIX =      1.0000
 Hartree-type preconditioning will be used
 using additional bands           35
 real space projection scheme for non local part
 use partial core corrections
 calculate Harris-corrections to forces 
   (improved forces if not selfconsistent)
 use gradient corrections 
 use of overlap-Matrix (Vanderbilt PP)
 Gauss-broadening in eV      SIGMA  =   0.10


--------------------------------------------------------------------------------------------------------


  energy-cutoff  :      520.00
  volume of cell :      535.60
      direct lattice vectors                 reciprocal lattice vectors
     8.133417000  0.000000000  0.000000000     0.122949555  0.000000000  0.000000000
     0.000000000  8.114909000  0.000000000     0.000000000  0.123229971  0.000000000
     0.000000000  0.000000000  8.114909000     0.000000000  0.000000000  0.123229971

  length of vectors
     8.133417000  8.114909000  8.114909000     0.122949555  0.123229971  0.123229971


 
 k-points in units of 2pi/SCALE and weight: K-Spacing Value to Generate K-Mesh: 0.10
   0.00000000  0.00000000  0.00000000       1.000
 
 k-points in reciprocal lattice and weights: K-Spacing Value to Generate K-Mesh: 0.10
   0.00000000  0.00000000  0.00000000       1.000
 
 position of ions in fractional coordinates (direct lattice) 
   0.04582475  0.84718600  0.42179062
   0.15129479  0.56627098  0.54391851
   0.32065763  0.82038426  0.81188002
   0.92327615  0.45524412  0.71033398
   0.48236181  0.48520290  0.83161868
   0.76033492  0.00828638  0.99228314
   0.75352965  0.21318236  0.30153936
   0.52186861  0.02840061  0.27362691
   0.49875219  0.28892295  0.07945556
   0.01947120  0.67651039  0.90988224
   0.74330474  0.97431215  0.47438028
   0.52117171  0.08431345  0.76767516
   0.51070893  0.30264997  0.48620971
   0.75021302  0.46840466  0.95726163
   0.71472516  0.68049831  0.16550228
   0.43586088  0.58265009  0.25688099
   0.56933553  0.80361703  0.98440716
   0.73873997  0.49053256  0.44178568
   0.77070936  0.75304751  0.74446633
   0.83021737  0.09135208  0.78196976
   0.96731054  0.51875390  0.26819984
   0.46239818  0.72221923  0.57875421
   0.25982263  0.52364669  0.01997187
   0.26632668  0.77360095  0.27007464
   0.99530247  0.25789870  0.98899126
   0.30498238  0.05397046  0.50252289
   0.25595084  0.29325805  0.76133037
   0.14615259  0.93612618  0.69146278
   0.20903272  0.25181241  0.26379297
   0.00951608  0.20277469  0.53350015
   0.01174485  0.96340818  0.14565419
   0.25462113  0.04811710  0.05514940
   0.28136107  0.27630602  0.05230102
   0.43680779  0.56234510  0.46230513
   0.95953506  0.98881156  0.59613850
   0.77735242  0.68977035  0.96462709
   0.75203340  0.44648263  0.20323736
   0.20842703  0.79937409  0.55266101
   0.73802774  0.26930245  0.54481293
   0.67016838  0.56402169  0.73223556
   0.50574846  0.79005411  0.26699195
   0.50373324  0.49383715  0.02689798
   0.22084430  0.97873122  0.27507796
   0.00586692  0.20795145  0.20010831
   0.02998251  0.25943578  0.74887620
   0.65340671  0.93783706  0.73274700
   0.54758191  0.28105255  0.30583972
   0.20623443  0.80332814  0.98668961
   0.00801615  0.41603901  0.46064761
   0.98793597  0.68417622  0.71628108
   0.28186943  0.54101397  0.77898765
   0.21432776  0.52423095  0.23927348
   0.81759239  0.70597285  0.39818603
   0.03847684  0.48012047  0.00612204
   0.49983866  0.02249574  0.03419288
   0.80798681  0.00876199  0.25210263
   0.77461193  0.23304180  0.00604648
   0.25013481  0.24852351  0.48263552
   0.48648209  0.99289538  0.48161406
   0.49760398  0.30436206  0.71557353
   0.31793465  0.09100585  0.81698404
   0.96406016  0.94295175  0.95321849
 
 position of ions in cartesian coordinates  (Angst):
   0.37271177  6.87483727  3.42279252
   1.23054365  4.59523744  4.41384922
   2.60804223  6.65734364  6.58833250
   7.50938996  3.69426458  5.76429558
   3.92324974  3.93737737  6.74850993
   6.18412095  0.06724319  8.05228739
   6.12877087  1.72995546  2.44696449
   4.24457505  0.23046836  2.22045745
   4.05655957  2.34458347  0.64477461
   0.15836742  5.48982022  7.38361156
   6.04560741  7.90645445  3.84955280
   4.23890687  0.68419598  6.22961407
   4.15380867  2.45597697  3.94554757
   6.10179534  3.80106120  7.76809103
   5.81315773  5.52218185  1.34303591
   3.54503832  4.72815243  2.08456586
   4.63064329  6.52127905  7.98837454
   6.00848025  3.98062710  3.58505058
   6.26850060  6.11091203  6.04127652
   6.75250407  0.74131382  6.34561342
   7.86754000  4.20964071  2.17641728
   3.76087725  5.86074334  4.69653774
   2.11324580  4.24934525  0.16206991
   2.16614593  6.27770133  2.19163111
   8.09521000  2.09282449  8.02557410
   2.48054887  0.43796541  4.07792754
   2.08175488  2.37976236  6.17812667
   1.18871998  7.59657877  5.61115756
   1.70015026  2.04343477  2.14065593
   0.07739825  1.64549812  4.32930513
   0.09552576  7.81796972  1.18197048
   2.07093979  0.39046591  0.44753240
   2.28842691  2.24219818  0.42441803
   3.55273988  4.56337929  3.75156405
   7.80429877  8.02411581  4.83760969
   6.32253138  5.59742361  7.82786102
   6.11660127  3.62316594  1.64925272
   1.69522392  6.48684801  4.48479379
   6.00268737  2.18536485  4.42110732
   5.45075893  4.57698468  5.94202493
   4.11346315  6.41121723  2.16661535
   4.09707253  4.00744354  0.21827470
   1.79621880  7.94231478  2.23223258
   0.04771810  1.68750707  1.62386076
   0.24386026  2.10529772  6.07706220
   5.31442925  7.61046238  5.94617522
   4.45371201  2.28071590  2.48186147
   1.67739064  6.51893475  8.00689637
   0.06519869  3.37611869  3.73811342
   8.03529523  5.55202780  5.81255575
   2.29256160  4.39027915  6.32141389
   1.74321704  4.25408649  1.94168255
   6.64981983  5.72890546  3.23124339
   0.31294818  3.89613392  0.04967981
   4.06539629  0.18255089  0.27747214
   6.57169362  0.07110277  2.04578992
   6.30024186  1.89111301  0.04906660
   2.03445074  2.01674563  3.91654335
   3.95676168  8.05725568  3.90825429
   4.04722068  2.46987045  5.80681405
   2.58589509  0.73850421  6.62975110
   7.84110326  7.65196767  7.73528133
 


--------------------------------------------------------------------------------------------------------


 k-point  1 :   0.0000 0.0000 0.0000  plane waves:   14379

 maximum and minimum number of plane-waves per node :      3605     3587

 maximum number of plane-waves:     14379
 maximum index in each direction: 
   IXMAX=   15   IYMAX=   15   IZMAX=   15
   IXMIN=  -15   IYMIN=  -15   IZMIN=  -15


 real space projection operators:
  total allocation   :       2535.34 KBytes
  max/ min on nodes  :        643.49        623.14


 parallel 3D FFT for wavefunctions:
    minimum data exchange during FFTs selected (reduces bandwidth)
 parallel 3D FFT for charge:
    minimum data exchange during FFTs selected (reduces bandwidth)


 total amount of memory used by VASP MPI-rank0    47907. kBytes
=======================================================================

   base      :      30000. kBytes
   nonlr-proj:       1762. kBytes
   fftplans  :       8989. kBytes
   grid      :       4257. kBytes
   one-center:         49. kBytes
   wavefun   :       2850. kBytes
 
     INWAV:  cpu time    0.0000: real time    0.0000
 Broyden mixing: mesh for mixing (old mesh)
   NGX = 31   NGY = 31   NGZ = 31
  (NGX  = 96   NGY  = 96   NGZ  = 96)
  gives a total of  29791 points

 initial charge density was supplied:
 charge density of overlapping atoms calculated
 number of electron     314.0000000 magnetization 
 keeping initial charge density in first step


--------------------------------------------------------------------------------------------------------


 Maximum index for non-local projection operator          236
 Maximum index for augmentation-charges         1406 (set IRDMAX)


--------------------------------------------------------------------------------------------------------


 First call to EWALD:  gamma=   0.218
 Maximum number of real-space cells 3x 3x 3
 Maximum number of reciprocal cells 3x 3x 3

    FEWALD:  cpu time    0.0024: real time    0.0024


--------------------------------------- Iteration      1(   1)  ---------------------------------------


    POTLOK:  cpu time    0.0351: real time    0.0373
    SETDIJ:  cpu time    0.0184: real time    0.0185
     EDDAV:  cpu time    0.2403: real time    0.2412
       DOS:  cpu time    0.0006: real time    0.0006
    --------------------------------------------
      LOOP:  cpu time    0.2944: real time    0.2976

 eigenvalue-minimisations  :   384
 total energy-change (2. order) : 0.3550042E+04  (-0.1595185E+05)
 number of electron     314.0000000 magnetization 
 augmentation part      314.0000000 magnetization 

 Free energy of the ion-electron system (eV)
  ---------------------------------------------------
  alpha Z        PSCENC =       605.65518664
  Ewald energy   TEWEN  =    -16698.56702877
  -Hartree energ DENC   =     -7462.55597250
  -exchange      EXHF   =         0.00000000
  -V(xc)+E(xc)   XCENC  =      1568.75697149
  PAW double counting   =     19647.49871307   -20272.91247572
  entropy T*S    EENTRO =        -0.05479242
  eigenvalues    EBANDS =     -1028.64929248
  atomic energy  EATOM  =     27190.87089379
  Solvation  Ediel_sol  =         0.00000000
  ---------------------------------------------------
  free energy    TOTEN  =      3550.04220310 eV

  energy without entropy =     3550.09699552  energy(sigma->0) =     3550.06959931


--------------------------------------------------------------------------------------------------------




--------------------------------------- Iteration      1(   2)  ---------------------------------------


     EDDAV:  cpu time    0.2503: real time    0.2509
       DOS:  cpu time    0.0001: real time    0.0001
    --------------------------------------------
      LOOP:  cpu time    0.2504: real time    0.2511

 eigenvalue-minimisations  :   416
 total energy-change (2. order) :-0.3437699E+04  (-0.3249484E+04)
 number of electron     314.0000000 magnetization 
 augmentation part      314.0000000 magnetization 

 Free energy of the ion-electron system (eV)
  ---------------------------------------------------
  alpha Z        PSCENC =       605.65518664
  Ewald energy   TEWEN  =    -16698.56702877
  -Hartree energ DENC   =     -7462.55597250
  -exchange      EXHF   =         0.00000000
  -V(xc)+E(xc)   XCENC  =      1568.75697149
  PAW double counting   =     19647.49871307   -20272.91247572
  entropy T*S    EENTRO =        -0.00000000
  eigenvalues    EBANDS =     -4466.40292885
  atomic energy  EATOM  =     27190.87089379
  Solvation  Ediel_sol  =         0.00000000
  ---------------------------------------------------
  free energy    TOTEN  =       112.34335915 eV

  energy without entropy =      112.34335915  energy(sigma->0) =      112.34335915


--------------------------------------------------------------------------------------------------------




--------------------------------------- Iteration      1(   3)  ---------------------------------------


     EDDAV:  cpu time    0.2764: real time    0.2771
       DOS:  cpu time    0.0002: real time    0.0002
    --------------------------------------------
      LOOP:  cpu time    0.2766: real time    0.2773

 eigenvalue-minimisations  :   480
 total energy-change (2. order) :-0.3563791E+03  (-0.3535936E+03)
 number of electron     314.0000000 magnetization 
 augmentation part      314.0000000 magnetization 

 Free energy of the ion-electron system (eV)
  ---------------------------------------------------
  alpha Z        PSCENC =       605.65518664
  Ewald energy   TEWEN  =    -16698.56702877
  -Hartree energ DENC   =     -7462.55597250
  -exchange      EXHF   =         0.00000000
  -V(xc)+E(xc)   XCENC  =      1568.75697149
  PAW double counting   =     19647.49871307   -20272.91247572
  entropy T*S    EENTRO =        -0.00014237
  eigenvalues    EBANDS =     -4822.78185661
  atomic energy  EATOM  =     27190.87089379
  Solvation  Ediel_sol  =         0.00000000
  ---------------------------------------------------
  free energy    TOTEN  =      -244.03571099 eV

  energy without entropy =     -244.03556861  energy(sigma->0) =     -244.03563980


--------------------------------------------------------------------------------------------------------




--------------------------------------- Iteration      1(   4)  ---------------------------------------


     EDDAV:  cpu time    0.4006: real time    0.4021
       DOS:  cpu time    0.0007: real time    0.0007
    --------------------------------------------
      LOOP:  cpu time    0.4013: real time    0.4028

 eigenvalue-minimisations  :   720
 total energy-change (2. order) :-0.4383410E+02  (-0.4348237E+02)
 number of electron     314.0000000 magnetization 
 augmentation part      314.0000000 magnetization 

 Free energy of the ion-electron system (eV)
  ---------------------------------------------------
  alpha Z        PSCENC =       605.65518664
  Ewald energy   TEWEN  =    -16698.56702877
  -Hartree energ DENC   =     -7462.55597250
  -exchange      EXHF   =         0.00000000
  -V(xc)+E(xc)   XCENC  =      1568.75697149
  PAW double counting   =     19647.49871307   -20272.91247572
  entropy T*S    EENTRO =        -0.00015847
  eigenvalues    EBANDS =     -4866.61594241
  atomic energy  EATOM  =     27190.87089379
  Solvation  Ediel_sol  =         0.00000000
  ---------------------------------------------------
  free energy    TOTEN  =      -287.86981288 eV

  energy without entropy =     -287.86965441  energy(sigma->0) =     -287.86973364


--------------------------------------------------------------------------------------------------------




--------------------------------------- Iteration      1(   5)  ---------------------------------------


     EDDAV:  cpu time    0.3045: real time    0.3057
       DOS:  cpu time    0.0002: real time    0.0002
    CHARGE:  cpu time    0.0237: real time    0.0238
    MIXING:  cpu time    0.0021: real time    0.0021
    --------------------------------------------
      LOOP:  cpu time    0.3305: real time    0.3318

 eigenvalue-minimisations  :   544
 total energy-change (2. order) :-0.5716501E+01  (-0.5712674E+01)
 number of electron     314.0000002 magnetization 
 augmentation part       74.6725757 magnetization 

 Broyden mixing:
  rms(total) = 0.28906E+01    rms(broyden)= 0.28889E+01
  rms(prec ) = 0.42163E+01
  weight for this iteration     100.00

 Free energy of the ion-electron system (eV)
  ---------------------------------------------------
  alpha Z        PSCENC =       605.65518664
  Ewald energy   TEWEN  =    -16698.56702877
  -Hartree energ DENC   =     -7462.55597250
  -exchange      EXHF   =         0.00000000
  -V(xc)+E(xc)   XCENC  =      1568.75697149
  PAW double counting   =     19647.49871307   -20272.91247572
  entropy T*S    EENTRO =        -0.00016063
  eigenvalues    EBANDS =     -4872.33244164
  atomic energy  EATOM  =     27190.87089379
  Solvation  Ediel_sol  =         0.00000000
  ---------------------------------------------------
  free energy    TOTEN  =      -293.58631427 eV

  energy without entropy =     -293.58615364  energy(sigma->0) =     -293.58623395


--------------------------------------------------------------------------------------------------------




--------------------------------------- Iteration      1(   6)  ---------------------------------------


    POTLOK:  cpu time    0.0188: real time    0.0189
    SETDIJ:  cpu time    0.0176: real time    0.0183
     EDDAV:  cpu time    0.2525: real time    0.2531
       DOS:  cpu time    0.0002: real time    0.0002
    CHARGE:  cpu time    0.0227: real time    0.0227
    MIXING:  cpu time    0.0014: real time    0.0015
    --------------------------------------------
      LOOP:  cpu time    0.3133: real time    0.3147

 eigenvalue-minimisations  :   440
 total energy-change (2. order) : 0.1839820E+02  (-0.1430725E+02)
 number of electron     314.0000002 magnetization 
 augmentation part       71.0778089 magnetization 

 Broyden mixing:
  rms(total) = 0.17345E+01    rms(broyden)= 0.17320E+01
  rms(prec ) = 0.25879E+01
  weight for this iteration     100.00

 eigenvalues of (default mixing * dielectric matrix)
  average eigenvalue GAMMA=   0.7096
  0.7096

 Free energy of the ion-electron system (eV)
  ---------------------------------------------------
  alpha Z        PSCENC =       605.65518664
  Ewald energy   TEWEN  =    -16698.56702877
  -Hartree energ DENC   =     -7910.00336106
  -exchange      EXHF   =         0.00000000
  -V(xc)+E(xc)   XCENC  =      1595.75829603
  PAW double counting   =     21210.90831395   -21855.00449542
  entropy T*S    EENTRO =        -0.01493949
  eigenvalues    EBANDS =     -4414.79098366
  atomic energy  EATOM  =     27190.87089379
  Solvation  Ediel_sol  =         0.00000000
  ---------------------------------------------------
  free energy    TOTEN  =      -275.18811798 eV

  energy without entropy =     -275.17317849  energy(sigma->0) =     -275.18064824


--------------------------------------------------------------------------------------------------------




--------------------------------------- Iteration      1(   7)  ---------------------------------------


    POTLOK:  cpu time    0.0182: real time    0.0182
    SETDIJ:  cpu time    0.0174: real time    0.0174
     EDDAV:  cpu time    0.2982: real time    0.2990
       DOS:  cpu time    0.0002: real time    0.0002
    CHARGE:  cpu time    0.0226: real time    0.0229
    MIXING:  cpu time    0.0012: real time    0.0012
    --------------------------------------------
      LOOP:  cpu time    0.3578: real time    0.3589

 eigenvalue-minimisations  :   536
 total energy-change (2. order) : 0.5615568E+00  (-0.7970157E+01)
 number of electron     314.0000003 magnetization 
 augmentation part       69.9797449 magnetization 

 Broyden mixing:
  rms(total) = 0.15794E+01    rms(broyden)= 0.15771E+01
  rms(prec ) = 0.23686E+01
  weight for this iteration     100.00

 eigenvalues of (default mixing * dielectric matrix)
  average eigenvalue GAMMA=   0.5671
  0.5671  0.5671

 Free energy of the ion-electron system (eV)
  ---------------------------------------------------
  alpha Z        PSCENC =       605.65518664
  Ewald energy   TEWEN  =    -16698.56702877
  -Hartree energ DENC   =     -7942.92607491
  -exchange      EXHF   =         0.00000000
  -V(xc)+E(xc)   XCENC  =      1597.18567556
  PAW double counting   =     21683.28549185   -22326.95411482
  entropy T*S    EENTRO =        -0.00444164
  eigenvalues    EBANDS =     -4383.17214893
  atomic energy  EATOM  =     27190.87089379
  Solvation  Ediel_sol  =         0.00000000
  ---------------------------------------------------
  free energy    TOTEN  =      -274.62656123 eV

  energy without entropy =     -274.62211959  energy(sigma->0) =     -274.62434041


--------------------------------------------------------------------------------------------------------




--------------------------------------- Iteration      1(   8)  ---------------------------------------


    POTLOK:  cpu time    0.0182: real time    0.0183
    SETDIJ:  cpu time    0.0172: real time    0.0173
     EDDAV:  cpu time    0.2771: real time    0.2778
       DOS:  cpu time    0.0002: real time    0.0002
    CHARGE:  cpu time    0.0227: real time    0.0227
    MIXING:  cpu time    0.0013: real time    0.0013
    --------------------------------------------
      LOOP:  cpu time    0.3368: real time    0.3376

 eigenvalue-minimisations  :   496
 total energy-change (2. order) : 0.4662147E+00  (-0.4491783E+01)
 number of electron     314.0000002 magnetization 
 augmentation part       69.7666315 magnetization 

 Broyden mixing:
  rms(total) = 0.11803E+01    rms(broyden)= 0.11783E+01
  rms(prec ) = 0.17162E+01
  weight for this iteration     100.00

 eigenvalues of (default mixing * dielectric matrix)
  average eigenvalue GAMMA=   0.5643
  0.8453  0.4238  0.4238

 Free energy of the ion-electron system (eV)
  ---------------------------------------------------
  alpha Z        PSCENC =       605.65518664
  Ewald energy   TEWEN  =    -16698.56702877
  -Hartree energ DENC   =     -7950.77492389
  -exchange      EXHF   =         0.00000000
  -V(xc)+E(xc)   XCENC  =      1597.43764210
  PAW double counting   =     21893.90504114   -22536.99441141
  entropy T*S    EENTRO =        -0.00000436
  eigenvalues    EBANDS =     -4375.69274179
  atomic energy  EATOM  =     27190.87089379
  Solvation  Ediel_sol  =         0.00000000
  ---------------------------------------------------
  free energy    TOTEN  =      -274.16034655 eV

  energy without entropy =     -274.16034219  energy(sigma->0) =     -274.16034437


--------------------------------------------------------------------------------------------------------




--------------------------------------- Iteration      1(   9)  ---------------------------------------


    POTLOK:  cpu time    0.0183: real time    0.0183
    SETDIJ:  cpu time    0.0173: real time    0.0174
     EDDAV:  cpu time    0.2955: real time    0.2962
       DOS:  cpu time    0.0002: real time    0.0002
    CHARGE:  cpu time    0.0225: real time    0.0226
    MIXING:  cpu time    0.0014: real time    0.0014
    --------------------------------------------
      LOOP:  cpu time    0.3553: real time    0.3562

 eigenvalue-minimisations  :   536
 total energy-change (2. order) : 0.1877243E+01  (-0.3161456E+00)
 number of electron     314.0000002 magnetization 
 augmentation part       69.6634541 magnetization 

 Broyden mixing:
  rms(total) = 0.67987E+00    rms(broyden)= 0.67948E+00
  rms(prec ) = 0.98860E+00
  weight for this iteration     100.00

 eigenvalues of (default mixing * dielectric matrix)
  average eigenvalue GAMMA=   0.5881
  0.5974  0.5974  0.6501  0.5076

 Free energy of the ion-electron system (eV)
  ---------------------------------------------------
  alpha Z        PSCENC =       605.65518664
  Ewald energy   TEWEN  =    -16698.56702877
  -Hartree energ DENC   =     -7962.16263919
  -exchange      EXHF   =         0.00000000
  -V(xc)+E(xc)   XCENC  =      1597.93671624
  PAW double counting   =     22133.69584234   -22776.22771106
  entropy T*S    EENTRO =        -0.03880848
  eigenvalues    EBANDS =     -4363.44555466
  atomic energy  EATOM  =     27190.87089379
  Solvation  Ediel_sol  =         0.00000000
  ---------------------------------------------------
  free energy    TOTEN  =      -272.28310316 eV

  energy without entropy =     -272.24429468  energy(sigma->0) =     -272.26369892


--------------------------------------------------------------------------------------------------------




--------------------------------------- Iteration      1(  10)  ---------------------------------------


    POTLOK:  cpu time    0.0182: real time    0.0183
    SETDIJ:  cpu time    0.0174: real time    0.0174
     EDDAV:  cpu time    0.2574: real time    0.2584
       DOS:  cpu time    0.0002: real time    0.0002
    CHARGE:  cpu time    0.0225: real time    0.0227
    MIXING:  cpu time    0.0017: real time    0.0017
    --------------------------------------------
      LOOP:  cpu time    0.3174: real time    0.3187

 eigenvalue-minimisations  :   448
 total energy-change (2. order) :-0.2448309E+00  (-0.7196622E+00)
 number of electron     314.0000002 magnetization 
 augmentation part       69.6596439 magnetization 

 Broyden mixing:
  rms(total) = 0.88625E+00    rms(broyden)= 0.88507E+00
  rms(prec ) = 0.13665E+01
  weight for this iteration     100.00

 eigenvalues of (default mixing * dielectric matrix)
  average eigenvalue GAMMA=   0.7553
  1.3301  1.3301  0.4399  0.3381  0.3381

 Free energy of the ion-electron system (eV)
  ---------------------------------------------------
  alpha Z        PSCENC =       605.65518664
  Ewald energy   TEWEN  =    -16698.56702877
  -Hartree energ DENC   =     -7968.53193906
  -exchange      EXHF   =         0.00000000
  -V(xc)+E(xc)   XCENC  =      1598.23997751
  PAW double counting   =     22276.65885776   -22918.75306981
  entropy T*S    EENTRO =        -0.09570219
  eigenvalues    EBANDS =     -4358.00510988
  atomic energy  EATOM  =     27190.87089379
  Solvation  Ediel_sol  =         0.00000000
  ---------------------------------------------------
  free energy    TOTEN  =      -272.52793402 eV

  energy without entropy =     -272.43223183  energy(sigma->0) =     -272.48008292


--------------------------------------------------------------------------------------------------------




--------------------------------------- Iteration      1(  11)  ---------------------------------------


    POTLOK:  cpu time    0.0183: real time    0.0184
    SETDIJ:  cpu time    0.0173: real time    0.0173
     EDDAV:  cpu time    0.2705: real time    0.2711
       DOS:  cpu time    0.0002: real time    0.0001
    CHARGE:  cpu time    0.0227: real time    0.0228
    MIXING:  cpu time    0.0012: real time    0.0012
    --------------------------------------------
      LOOP:  cpu time    0.3302: real time    0.3310

 eigenvalue-minimisations  :   480
 total energy-change (2. order) :-0.1677589E+01  (-0.1640412E+01)
 number of electron     314.0000002 magnetization 
 augmentation part       69.6872246 magnetization 

 Broyden mixing:
  rms(total) = 0.13703E+01    rms(broyden)= 0.13683E+01
  rms(prec ) = 0.21469E+01
  weight for this iteration     100.00

 eigenvalues of (default mixing * dielectric matrix)
  average eigenvalue GAMMA=   0.7656
  1.8963  1.1417  0.4929  0.4929  0.2849  0.2849

 Free energy of the ion-electron system (eV)
  ---------------------------------------------------
  alpha Z        PSCENC =       605.65518664
  Ewald energy   TEWEN  =    -16698.56702877
  -Hartree energ DENC   =     -7986.82966817
  -exchange      EXHF   =         0.00000000
  -V(xc)+E(xc)   XCENC  =      1599.18504640
  PAW double counting   =     22652.53493663   -23293.53417902
  entropy T*S    EENTRO =        -0.00000000
  eigenvalues    EBANDS =     -4343.52071053
  atomic energy  EATOM  =     27190.87089379
  Solvation  Ediel_sol  =         0.00000000
  ---------------------------------------------------
  free energy    TOTEN  =      -274.20552303 eV

  energy without entropy =     -274.20552303  energy(sigma->0) =     -274.20552303


--------------------------------------------------------------------------------------------------------




--------------------------------------- Iteration      1(  12)  ---------------------------------------


    POTLOK:  cpu time    0.0182: real time    0.0182
    SETDIJ:  cpu time    0.0172: real time    0.0172
     EDDAV:  cpu time    0.2886: real time    0.2893
       DOS:  cpu time    0.0002: real time    0.0002
    CHARGE:  cpu time    0.0230: real time    0.0231
    MIXING:  cpu time    0.0019: real time    0.0019
    --------------------------------------------
      LOOP:  cpu time    0.3491: real time    0.3500

 eigenvalue-minimisations  :   504
 total energy-change (2. order) : 0.1713053E+01  (-0.5451216E+00)
 number of electron     314.0000002 magnetization 
 augmentation part       69.6648591 magnetization 

 Broyden mixing:
  rms(total) = 0.57540E+00    rms(broyden)= 0.57161E+00
  rms(prec ) = 0.88986E+00
  weight for this iteration     100.00

 eigenvalues of (default mixing * dielectric matrix)
  average eigenvalue GAMMA=   0.7459
  2.1341  1.0631  0.4626  0.4626  0.4398  0.3295  0.3295

 Free energy of the ion-electron system (eV)
  ---------------------------------------------------
  alpha Z        PSCENC =       605.65518664
  Ewald energy   TEWEN  =    -16698.56702877
  -Hartree energ DENC   =     -7991.74352677
  -exchange      EXHF   =         0.00000000
  -V(xc)+E(xc)   XCENC  =      1599.48553524
  PAW double counting   =     22775.27051459   -23415.91023821
  entropy T*S    EENTRO =        -0.00904368
  eigenvalues    EBANDS =     -4337.54476267
  atomic energy  EATOM  =     27190.87089379
  Solvation  Ediel_sol  =         0.00000000
  ---------------------------------------------------
  free energy    TOTEN  =      -272.49246985 eV

  energy without entropy =     -272.48342617  energy(sigma->0) =     -272.48794801


--------------------------------------------------------------------------------------------------------




--------------------------------------- Iteration      1(  13)  ---------------------------------------


    POTLOK:  cpu time    0.0182: real time    0.0187
    SETDIJ:  cpu time    0.0174: real time    0.0179
     EDDAV:  cpu time    0.2480: real time    0.2486
       DOS:  cpu time    0.0002: real time    0.0002
    CHARGE:  cpu time    0.0226: real time    0.0229
    MIXING:  cpu time    0.0013: real time    0.0013
    --------------------------------------------
      LOOP:  cpu time    0.3077: real time    0.3096

 eigenvalue-minimisations  :   432
 total energy-change (2. order) : 0.1910374E+00  (-0.1514043E+00)
 number of electron     314.0000002 magnetization 
 augmentation part       69.6366976 magnetization 

 Broyden mixing:
  rms(total) = 0.50899E+00    rms(broyden)= 0.50824E+00
  rms(prec ) = 0.81069E+00
  weight for this iteration     100.00

 eigenvalues of (default mixing * dielectric matrix)
  average eigenvalue GAMMA=   0.7551
  2.2335  1.0496  0.6104  0.6104  0.4317  0.4317  0.3366  0.3366

 Free energy of the ion-electron system (eV)
  ---------------------------------------------------
  alpha Z        PSCENC =       605.65518664
  Ewald energy   TEWEN  =    -16698.56702877
  -Hartree energ DENC   =     -7997.47751914
  -exchange      EXHF   =         0.00000000
  -V(xc)+E(xc)   XCENC  =      1599.81044676
  PAW double counting   =     22819.02738602   -23459.60677517
  entropy T*S    EENTRO =        -0.06063028
  eigenvalues    EBANDS =     -4331.95339231
  atomic energy  EATOM  =     27190.87089379
  Solvation  Ediel_sol  =         0.00000000
  ---------------------------------------------------
  free energy    TOTEN  =      -272.30143246 eV

  energy without entropy =     -272.24080218  energy(sigma->0) =     -272.27111732


--------------------------------------------------------------------------------------------------------




--------------------------------------- Iteration      1(  14)  ---------------------------------------


    POTLOK:  cpu time    0.0178: real time    0.0179
    SETDIJ:  cpu time    0.0170: real time    0.0170
     EDDAV:  cpu time    0.2518: real time    0.2524
       DOS:  cpu time    0.0003: real time    0.0002
    CHARGE:  cpu time    0.0227: real time    0.0228
    MIXING:  cpu time    0.0014: real time    0.0014
    --------------------------------------------
      LOOP:  cpu time    0.3110: real time    0.3118

 eigenvalue-minimisations  :   440
 total energy-change (2. order) :-0.5902075E-02  (-0.2507442E+00)
 number of electron     314.0000002 magnetization 
 augmentation part       69.6098574 magnetization 

 Broyden mixing:
  rms(total) = 0.35943E+00    rms(broyden)= 0.35742E+00
  rms(prec ) = 0.57277E+00
  weight for this iteration     100.00

 eigenvalues of (default mixing * dielectric matrix)
  average eigenvalue GAMMA=   0.7696
  2.4209  1.0470  1.0470  0.5256  0.5256  0.3864  0.3864  0.2939  0.2939

 Free energy of the ion-electron system (eV)
  ---------------------------------------------------
  alpha Z        PSCENC =       605.65518664
  Ewald energy   TEWEN  =    -16698.56702877
  -Hartree energ DENC   =     -8000.99267064
  -exchange      EXHF   =         0.00000000
  -V(xc)+E(xc)   XCENC  =      1600.01870575
  PAW double counting   =     22835.73631505   -23476.20663360
  entropy T*S    EENTRO =        -0.08085813
  eigenvalues    EBANDS =     -4328.74124462
  atomic energy  EATOM  =     27190.87089379
  Solvation  Ediel_sol  =         0.00000000
  ---------------------------------------------------
  free energy    TOTEN  =      -272.30733454 eV

  energy without entropy =     -272.22647641  energy(sigma->0) =     -272.26690547


--------------------------------------------------------------------------------------------------------




--------------------------------------- Iteration      1(  15)  ---------------------------------------


    POTLOK:  cpu time    0.0177: real time    0.0178
    SETDIJ:  cpu time    0.0172: real time    0.0172
     EDDAV:  cpu time    0.2696: real time    0.2702
       DOS:  cpu time    0.0002: real time    0.0002
    CHARGE:  cpu time    0.0226: real time    0.0227
    MIXING:  cpu time    0.0016: real time    0.0016
    --------------------------------------------
      LOOP:  cpu time    0.3289: real time    0.3297

 eigenvalue-minimisations  :   480
 total energy-change (2. order) : 0.2480754E-01  (-0.1458261E-01)
 number of electron     314.0000002 magnetization 
 augmentation part       69.5898986 magnetization 

 Broyden mixing:
  rms(total) = 0.26741E+00    rms(broyden)= 0.26726E+00
  rms(prec ) = 0.41687E+00
  weight for this iteration     100.00

 eigenvalues of (default mixing * dielectric matrix)
  average eigenvalue GAMMA=   0.7527
  2.4806  1.0349  0.8092  0.8092  0.5434  0.5434  0.3654  0.3654  0.2880  0.2880

 Free energy of the ion-electron system (eV)
  ---------------------------------------------------
  alpha Z        PSCENC =       605.65518664
  Ewald energy   TEWEN  =    -16698.56702877
  -Hartree energ DENC   =     -8003.77691069
  -exchange      EXHF   =         0.00000000
  -V(xc)+E(xc)   XCENC  =      1600.18458695
  PAW double counting   =     22846.06300206   -23486.47059865
  entropy T*S    EENTRO =        -0.06397595
  eigenvalues    EBANDS =     -4326.17768237
  atomic energy  EATOM  =     27190.87089379
  Solvation  Ediel_sol  =         0.00000000
  ---------------------------------------------------
  free energy    TOTEN  =      -272.28252700 eV

  energy without entropy =     -272.21855104  energy(sigma->0) =     -272.25053902


--------------------------------------------------------------------------------------------------------




--------------------------------------- Iteration      1(  16)  ---------------------------------------


    POTLOK:  cpu time    0.0178: real time    0.0178
    SETDIJ:  cpu time    0.0172: real time    0.0172
     EDDAV:  cpu time    0.2627: real time    0.2633
       DOS:  cpu time    0.0002: real time    0.0002
    CHARGE:  cpu time    0.0226: real time    0.0227
    MIXING:  cpu time    0.0015: real time    0.0015
    --------------------------------------------
      LOOP:  cpu time    0.3220: real time    0.3228

 eigenvalue-minimisations  :   464
 total energy-change (2. order) : 0.2639976E-01  (-0.1602095E-01)
 number of electron     314.0000002 magnetization 
 augmentation part       69.5907865 magnetization 

 Broyden mixing:
  rms(total) = 0.53709E-01    rms(broyden)= 0.52719E-01
  rms(prec ) = 0.76477E-01
  weight for this iteration     100.00

 eigenvalues of (default mixing * dielectric matrix)
  average eigenvalue GAMMA=   0.7679
  2.5418  1.2617  1.0461  0.5293  0.5293  0.6194  0.6194  0.3613  0.3613  0.2886
  0.2886

 Free energy of the ion-electron system (eV)
  ---------------------------------------------------
  alpha Z        PSCENC =       605.65518664
  Ewald energy   TEWEN  =    -16698.56702877
  -Hartree energ DENC   =     -8004.23668370
  -exchange      EXHF   =         0.00000000
  -V(xc)+E(xc)   XCENC  =      1600.21178413
  PAW double counting   =     22848.26852874   -23488.59725458
  entropy T*S    EENTRO =        -0.07940586
  eigenvalues    EBANDS =     -4325.78214762
  atomic energy  EATOM  =     27190.87089379
  Solvation  Ediel_sol  =         0.00000000
  ---------------------------------------------------
  free energy    TOTEN  =      -272.25612724 eV

  energy without entropy =     -272.17672137  energy(sigma->0) =     -272.21642430


--------------------------------------------------------------------------------------------------------




--------------------------------------- Iteration      1(  17)  ---------------------------------------


    POTLOK:  cpu time    0.0179: real time    0.0179
    SETDIJ:  cpu time    0.0173: real time    0.0175
     EDDAV:  cpu time    0.2560: real time    0.2567
       DOS:  cpu time    0.0002: real time    0.0002
    CHARGE:  cpu time    0.0227: real time    0.0228
    MIXING:  cpu time    0.0015: real time    0.0015
    --------------------------------------------
      LOOP:  cpu time    0.3157: real time    0.3167

 eigenvalue-minimisations  :   448
 total energy-change (2. order) :-0.1398962E-01  (-0.1374605E-01)
 number of electron     314.0000002 magnetization 
 augmentation part       69.5881107 magnetization 

 Broyden mixing:
  rms(total) = 0.23129E+00    rms(broyden)= 0.23077E+00
  rms(prec ) = 0.36641E+00
  weight for this iteration     100.00

 eigenvalues of (default mixing * dielectric matrix)
  average eigenvalue GAMMA=   0.8287
  2.6222  1.9203  0.8835  0.8835  0.5455  0.5455  0.6075  0.6075  0.3755  0.3755
  0.2890  0.2890

 Free energy of the ion-electron system (eV)
  ---------------------------------------------------
  alpha Z        PSCENC =       605.65518664
  Ewald energy   TEWEN  =    -16698.56702877
  -Hartree energ DENC   =     -8005.32347493
  -exchange      EXHF   =         0.00000000
  -V(xc)+E(xc)   XCENC  =      1600.27496496
  PAW double counting   =     22840.72285759   -23480.96906666
  entropy T*S    EENTRO =        -0.08457486
  eigenvalues    EBANDS =     -4324.84987462
  atomic energy  EATOM  =     27190.87089379
  Solvation  Ediel_sol  =         0.00000000
  ---------------------------------------------------
  free energy    TOTEN  =      -272.27011686 eV

  energy without entropy =     -272.18554200  energy(sigma->0) =     -272.22782943


--------------------------------------------------------------------------------------------------------




--------------------------------------- Iteration      1(  18)  ---------------------------------------


    POTLOK:  cpu time    0.0179: real time    0.0179
    SETDIJ:  cpu time    0.0172: real time    0.0172
     EDDAV:  cpu time    0.2949: real time    0.2957
       DOS:  cpu time    0.0002: real time    0.0002
    CHARGE:  cpu time    0.0226: real time    0.0226
    MIXING:  cpu time    0.0017: real time    0.0017
    --------------------------------------------
      LOOP:  cpu time    0.3545: real time    0.3554

 eigenvalue-minimisations  :   536
 total energy-change (2. order) :-0.9745169E-02  (-0.5760580E-01)
 number of electron     314.0000002 magnetization 
 augmentation part       69.5872474 magnetization 

 Broyden mixing:
  rms(total) = 0.25582E+00    rms(broyden)= 0.25497E+00
  rms(prec ) = 0.40144E+00
  weight for this iteration     100.00

 eigenvalues of (default mixing * dielectric matrix)
  average eigenvalue GAMMA=   0.8063
  2.6820  2.0926  0.9070  0.9070  0.5223  0.5223  0.5900  0.5900  0.3705  0.3705
  0.3465  0.2904  0.2904

 Free energy of the ion-electron system (eV)
  ---------------------------------------------------
  alpha Z        PSCENC =       605.65518664
  Ewald energy   TEWEN  =    -16698.56702877
  -Hartree energ DENC   =     -8005.63487079
  -exchange      EXHF   =         0.00000000
  -V(xc)+E(xc)   XCENC  =      1600.29338371
  PAW double counting   =     22831.18652390   -23471.33156754
  entropy T*S    EENTRO =        -0.06099711
  eigenvalues    EBANDS =     -4324.69138585
  atomic energy  EATOM  =     27190.87089379
  Solvation  Ediel_sol  =         0.00000000
  ---------------------------------------------------
  free energy    TOTEN  =      -272.27986203 eV

  energy without entropy =     -272.21886492  energy(sigma->0) =     -272.24936347


--------------------------------------------------------------------------------------------------------




--------------------------------------- Iteration      1(  19)  ---------------------------------------


    POTLOK:  cpu time    0.0178: real time    0.0179
    SETDIJ:  cpu time    0.0172: real time    0.0172
     EDDAV:  cpu time    0.2423: real time    0.2433
       DOS:  cpu time    0.0002: real time    0.0002
    CHARGE:  cpu time    0.0227: real time    0.0227
    MIXING:  cpu time    0.0019: real time    0.0019
    --------------------------------------------
      LOOP:  cpu time    0.3020: real time    0.3031

 eigenvalue-minimisations  :   416
 total energy-change (2. order) : 0.1406968E-01  (-0.3879805E-02)
 number of electron     314.0000002 magnetization 
 augmentation part       69.5898850 magnetization 

 Broyden mixing:
  rms(total) = 0.16172E+00    rms(broyden)= 0.16166E+00
  rms(prec ) = 0.25658E+00
  weight for this iteration     100.00

 eigenvalues of (default mixing * dielectric matrix)
  average eigenvalue GAMMA=   0.7957
  2.7294  2.1508  0.8749  0.8749  0.8794  0.4935  0.4935  0.4670  0.4670  0.3892
  0.3892  0.2863  0.2863  0.3591

 Free energy of the ion-electron system (eV)
  ---------------------------------------------------
  alpha Z        PSCENC =       605.65518664
  Ewald energy   TEWEN  =    -16698.56702877
  -Hartree energ DENC   =     -8005.80210918
  -exchange      EXHF   =         0.00000000
  -V(xc)+E(xc)   XCENC  =      1600.30376402
  PAW double counting   =     22828.23192276   -23468.35266897
  entropy T*S    EENTRO =        -0.07676500
  eigenvalues    EBANDS =     -4324.52898764
  atomic energy  EATOM  =     27190.87089379
  Solvation  Ediel_sol  =         0.00000000
  ---------------------------------------------------
  free energy    TOTEN  =      -272.26579235 eV

  energy without entropy =     -272.18902734  energy(sigma->0) =     -272.22740985


--------------------------------------------------------------------------------------------------------




--------------------------------------- Iteration      1(  20)  ---------------------------------------


    POTLOK:  cpu time    0.0180: real time    0.0180
    SETDIJ:  cpu time    0.0172: real time    0.0177
     EDDAV:  cpu time    0.2628: real time    0.2636
       DOS:  cpu time    0.0002: real time    0.0002
    CHARGE:  cpu time    0.0226: real time    0.0227
    MIXING:  cpu time    0.0019: real time    0.0019
    --------------------------------------------
      LOOP:  cpu time    0.3227: real time    0.3242

 eigenvalue-minimisations  :   464
 total energy-change (2. order) : 0.6867076E-02  (-0.3737145E-02)
 number of electron     314.0000002 magnetization 
 augmentation part       69.5896268 magnetization 

 Broyden mixing:
  rms(total) = 0.35765E-01    rms(broyden)= 0.35217E-01
  rms(prec ) = 0.55505E-01
  weight for this iteration     100.00

 eigenvalues of (default mixing * dielectric matrix)
  average eigenvalue GAMMA=   0.8322
  2.8682  2.3045  1.0281  1.0281  0.8047  0.8047  0.4926  0.4926  0.4843  0.4843
  0.3835  0.3835  0.2873  0.2873  0.3502

 Free energy of the ion-electron system (eV)
  ---------------------------------------------------
  alpha Z        PSCENC =       605.65518664
  Ewald energy   TEWEN  =    -16698.56702877
  -Hartree energ DENC   =     -8006.03269756
  -exchange      EXHF   =         0.00000000
  -V(xc)+E(xc)   XCENC  =      1600.31588286
  PAW double counting   =     22826.65113452   -23466.75654182
  entropy T*S    EENTRO =        -0.08130512
  eigenvalues    EBANDS =     -4324.31444980
  atomic energy  EATOM  =     27190.87089379
  Solvation  Ediel_sol  =         0.00000000
  ---------------------------------------------------
  free energy    TOTEN  =      -272.25892527 eV

  energy without entropy =     -272.17762015  energy(sigma->0) =     -272.21827271


--------------------------------------------------------------------------------------------------------




--------------------------------------- Iteration      1(  21)  ---------------------------------------


    POTLOK:  cpu time    0.0179: real time    0.0179
    SETDIJ:  cpu time    0.0173: real time    0.0173
     EDDAV:  cpu time    0.2555: real time    0.2561
       DOS:  cpu time    0.0002: real time    0.0002
    CHARGE:  cpu time    0.0226: real time    0.0226
    MIXING:  cpu time    0.0019: real time    0.0019
    --------------------------------------------
      LOOP:  cpu time    0.3154: real time    0.3161

 eigenvalue-minimisations  :   448
 total energy-change (2. order) :-0.1327982E-02  (-0.1388947E-03)
 number of electron     314.0000002 magnetization 
 augmentation part       69.5906424 magnetization 

 Broyden mixing:
  rms(total) = 0.23872E-01    rms(broyden)= 0.23788E-01
  rms(prec ) = 0.39096E-01
  weight for this iteration     100.00

 eigenvalues of (default mixing * dielectric matrix)
  average eigenvalue GAMMA=   0.8532
  2.8960  2.2999  1.4097  1.0277  1.0277  0.7190  0.4920  0.4920  0.5930  0.5020
  0.5020  0.3838  0.3838  0.2871  0.2871  0.3484

 Free energy of the ion-electron system (eV)
  ---------------------------------------------------
  alpha Z        PSCENC =       605.65518664
  Ewald energy   TEWEN  =    -16698.56702877
  -Hartree energ DENC   =     -8006.12531721
  -exchange      EXHF   =         0.00000000
  -V(xc)+E(xc)   XCENC  =      1600.31972197
  PAW double counting   =     22824.59975943   -23464.68745727
  entropy T*S    EENTRO =        -0.08320798
  eigenvalues    EBANDS =     -4324.24280385
  atomic energy  EATOM  =     27190.87089379
  Solvation  Ediel_sol  =         0.00000000
  ---------------------------------------------------
  free energy    TOTEN  =      -272.26025325 eV

  energy without entropy =     -272.17704527  energy(sigma->0) =     -272.21864926


--------------------------------------------------------------------------------------------------------




--------------------------------------- Iteration      1(  22)  ---------------------------------------


    POTLOK:  cpu time    0.0178: real time    0.0179
    SETDIJ:  cpu time    0.0170: real time    0.0171
     EDDAV:  cpu time    0.2449: real time    0.2455
       DOS:  cpu time    0.0002: real time    0.0002
    CHARGE:  cpu time    0.0225: real time    0.0225
    MIXING:  cpu time    0.0021: real time    0.0021
    --------------------------------------------
      LOOP:  cpu time    0.3046: real time    0.3054

 eigenvalue-minimisations  :   424
 total energy-change (2. order) :-0.4456539E-04  (-0.1055208E-03)
 number of electron     314.0000002 magnetization 
 augmentation part       69.5901333 magnetization 

 Broyden mixing:
  rms(total) = 0.46117E-02    rms(broyden)= 0.43767E-02
  rms(prec ) = 0.69970E-02
  weight for this iteration     100.00

 eigenvalues of (default mixing * dielectric matrix)
  average eigenvalue GAMMA=   0.8938
  2.9586  2.3072  1.8993  1.0518  1.0518  0.8247  0.8247  0.4922  0.4922  0.5943
  0.5034  0.5034  0.3840  0.3840  0.2871  0.2871  0.3490

 Free energy of the ion-electron system (eV)
  ---------------------------------------------------
  alpha Z        PSCENC =       605.65518664
  Ewald energy   TEWEN  =    -16698.56702877
  -Hartree energ DENC   =     -8006.20799918
  -exchange      EXHF   =         0.00000000
  -V(xc)+E(xc)   XCENC  =      1600.32316674
  PAW double counting   =     22824.20487700   -23464.29167651
  entropy T*S    EENTRO =        -0.08253130
  eigenvalues    EBANDS =     -4324.16518621
  atomic energy  EATOM  =     27190.87089379
  Solvation  Ediel_sol  =         0.00000000
  ---------------------------------------------------
  free energy    TOTEN  =      -272.26029782 eV

  energy without entropy =     -272.17776651  energy(sigma->0) =     -272.21903217


--------------------------------------------------------------------------------------------------------




--------------------------------------- Iteration      1(  23)  ---------------------------------------


    POTLOK:  cpu time    0.0178: real time    0.0179
    SETDIJ:  cpu time    0.0172: real time    0.0172
     EDDAV:  cpu time    0.2344: real time    0.2351
       DOS:  cpu time    0.0002: real time    0.0002
    CHARGE:  cpu time    0.0225: real time    0.0226
    MIXING:  cpu time    0.0022: real time    0.0022
    --------------------------------------------
      LOOP:  cpu time    0.2943: real time    0.2953

 eigenvalue-minimisations  :   400
 total energy-change (2. order) :-0.1563143E-03  (-0.1159631E-03)
 number of electron     314.0000002 magnetization 
 augmentation part       69.5904027 magnetization 

 Broyden mixing:
  rms(total) = 0.20815E-01    rms(broyden)= 0.20763E-01
  rms(prec ) = 0.32322E-01
  weight for this iteration     100.00

 eigenvalues of (default mixing * dielectric matrix)
  average eigenvalue GAMMA=   0.9081
  3.0162  2.4424  2.1109  0.9965  0.9965  1.0042  0.7943  0.7943  0.4931  0.4931
  0.4939  0.4939  0.5283  0.3842  0.3842  0.2871  0.2871  0.3455

 Free energy of the ion-electron system (eV)
  ---------------------------------------------------
  alpha Z        PSCENC =       605.65518664
  Ewald energy   TEWEN  =    -16698.56702877
  -Hartree energ DENC   =     -8006.23778065
  -exchange      EXHF   =         0.00000000
  -V(xc)+E(xc)   XCENC  =      1600.32375579
  PAW double counting   =     22823.93174409   -23464.01677909
  entropy T*S    EENTRO =        -0.08438312
  eigenvalues    EBANDS =     -4324.13606281
  atomic energy  EATOM  =     27190.87089379
  Solvation  Ediel_sol  =         0.00000000
  ---------------------------------------------------
  free energy    TOTEN  =      -272.26045413 eV

  energy without entropy =     -272.17607101  energy(sigma->0) =     -272.21826257


--------------------------------------------------------------------------------------------------------




--------------------------------------- Iteration      1(  24)  ---------------------------------------


    POTLOK:  cpu time    0.0179: real time    0.0180
    SETDIJ:  cpu time    0.0172: real time    0.0173
     EDDAV:  cpu time    0.2200: real time    0.2205
       DOS:  cpu time    0.0002: real time    0.0002
    CHARGE:  cpu time    0.0227: real time    0.0227
    MIXING:  cpu time    0.0021: real time    0.0021
    --------------------------------------------
      LOOP:  cpu time    0.2801: real time    0.2808

 eigenvalue-minimisations  :   368
 total energy-change (2. order) : 0.1078921E-03  (-0.1066289E-03)
 number of electron     314.0000002 magnetization 
 augmentation part       69.5902619 magnetization 

 Broyden mixing:
  rms(total) = 0.44840E-02    rms(broyden)= 0.43705E-02
  rms(prec ) = 0.68780E-02
  weight for this iteration     100.00

 eigenvalues of (default mixing * dielectric matrix)
  average eigenvalue GAMMA=   0.9010
  3.1008  2.4795  1.7776  1.3176  1.0674  1.0674  0.7751  0.7751  0.4929  0.4929
  0.4966  0.4966  0.5457  0.5457  0.3842  0.3842  0.2871  0.2871  0.3455

 Free energy of the ion-electron system (eV)
  ---------------------------------------------------
  alpha Z        PSCENC =       605.65518664
  Ewald energy   TEWEN  =    -16698.56702877
  -Hartree energ DENC   =     -8006.22241452
  -exchange      EXHF   =         0.00000000
  -V(xc)+E(xc)   XCENC  =      1600.32227423
  PAW double counting   =     22823.86433635   -23463.94827444
  entropy T*S    EENTRO =        -0.08246805
  eigenvalues    EBANDS =     -4324.15285147
  atomic energy  EATOM  =     27190.87089379
  Solvation  Ediel_sol  =         0.00000000
  ---------------------------------------------------
  free energy    TOTEN  =      -272.26034624 eV

  energy without entropy =     -272.17787819  energy(sigma->0) =     -272.21911222


--------------------------------------------------------------------------------------------------------




--------------------------------------- Iteration      1(  25)  ---------------------------------------


    POTLOK:  cpu time    0.0179: real time    0.0180
    SETDIJ:  cpu time    0.0170: real time    0.0171
     EDDAV:  cpu time    0.1850: real time    0.1858
       DOS:  cpu time    0.0003: real time    0.0003
    CHARGE:  cpu time    0.0229: real time    0.0230
    MIXING:  cpu time    0.0029: real time    0.0029
    --------------------------------------------
      LOOP:  cpu time    0.2461: real time    0.2470

 eigenvalue-minimisations  :   272
 total energy-change (2. order) :-0.1474527E-04  (-0.4822260E-05)
 number of electron     314.0000002 magnetization 
 augmentation part       69.5904446 magnetization 

 Broyden mixing:
  rms(total) = 0.41294E-02    rms(broyden)= 0.41021E-02
  rms(prec ) = 0.65343E-02
  weight for this iteration     100.00

 eigenvalues of (default mixing * dielectric matrix)
  average eigenvalue GAMMA=   0.9361
  3.2411  2.5705  1.9138  1.6363  1.0258  1.0258  0.9119  0.9119  0.4929  0.4929
  0.6965  0.5622  0.5622  0.4947  0.4947  0.3842  0.3842  0.2871  0.2871  0.3455

 Free energy of the ion-electron system (eV)
  ---------------------------------------------------
  alpha Z        PSCENC =       605.65518664
  Ewald energy   TEWEN  =    -16698.56702877
  -Hartree energ DENC   =     -8006.22144490
  -exchange      EXHF   =         0.00000000
  -V(xc)+E(xc)   XCENC  =      1600.32198691
  PAW double counting   =     22823.71525723   -23463.79759036
  entropy T*S    EENTRO =        -0.08275749
  eigenvalues    EBANDS =     -4324.15486405
  atomic energy  EATOM  =     27190.87089379
  Solvation  Ediel_sol  =         0.00000000
  ---------------------------------------------------
  free energy    TOTEN  =      -272.26036099 eV

  energy without entropy =     -272.17760350  energy(sigma->0) =     -272.21898224


--------------------------------------------------------------------------------------------------------




--------------------------------------- Iteration      1(  26)  ---------------------------------------


    POTLOK:  cpu time    0.0182: real time    0.0187
    SETDIJ:  cpu time    0.0173: real time    0.0180
     EDDAV:  cpu time    0.1535: real time    0.1538
       DOS:  cpu time    0.0002: real time    0.0002
    --------------------------------------------
      LOOP:  cpu time    0.1892: real time    0.1908

 eigenvalue-minimisations  :   216
 total energy-change (2. order) : 0.3465233E-05  (-0.6270902E-05)
 number of electron     314.0000002 magnetization 
 augmentation part       69.5904446 magnetization 

 Free energy of the ion-electron system (eV)
  ---------------------------------------------------
  alpha Z        PSCENC =       605.65518664
  Ewald energy   TEWEN  =    -16698.56702877
  -Hartree energ DENC   =     -8006.22783743
  -exchange      EXHF   =         0.00000000
  -V(xc)+E(xc)   XCENC  =      1600.32208031
  PAW double counting   =     22823.76334214   -23463.84623495
  entropy T*S    EENTRO =        -0.08308597
  eigenvalues    EBANDS =     -4324.14767329
  atomic energy  EATOM  =     27190.87089379
  Solvation  Ediel_sol  =         0.00000000
  ---------------------------------------------------
  free energy    TOTEN  =      -272.26035752 eV

  energy without entropy =     -272.17727155  energy(sigma->0) =     -272.21881454


--------------------------------------------------------------------------------------------------------




 average (electrostatic) potential at core
  the test charge radii are     0.7167  0.7079
  (the norm of the test charge is              1.0000)
       1 -76.4546       2 -76.9473       3 -77.4028       4 -75.9416       5 -77.2390
       6 -77.4202       7 -77.3886       8 -76.5629       9 -77.2457      10 -77.5619
      11 -76.5692      12 -77.3667      13 -78.0156      14 -76.7129      15 -76.8131
      16 -77.1713      17 -76.9945      18 -76.4813      19 -77.0538      20 -77.3056
      21 -76.8463      22 -76.1920      23 -77.2849      24 -76.7696      25 -77.4775
      26 -76.2572      27 -77.4744      28 -77.6441      29 -77.5305      30 -77.0665
      31 -76.5398      32 -76.8001      33 -61.5867      34 -61.4331      35 -61.0919
      36 -60.8581      37 -61.9641      38 -60.7563      39 -62.5481      40 -61.6385
      41 -61.6509      42 -60.8096      43 -60.6776      44 -62.1618      45 -61.0128
      46 -60.8833      47 -61.2672      48 -61.8209      49 -61.3193      50 -61.5286
      51 -61.8668      52 -61.8089      53 -62.0346      54 -61.6982      55 -61.5523
      56 -61.4915      57 -62.0395      58 -61.5548      59 -60.9825      60 -62.1183
      61 -61.5553      62 -61.8589
 
 
 
 E-fermi :  -0.0594     XC(G=0):  -9.6188     alpha+bet :-12.2338


 k-point     1 :       0.0000    0.0000    0.0000
  band No.  band energies     occupation 
      1     -43.4699      2.00000
      2     -43.0917      2.00000
      3     -43.0435      2.00000
      4     -42.9655      2.00000
      5     -42.9536      2.00000
      6     -42.8803      2.00000
      7     -42.8095      2.00000
      8     -42.7902      2.00000
      9     -42.7373      2.00000
     10     -42.7310      2.00000
     11     -42.6182      2.00000
     12     -42.5756      2.00000
     13     -42.5632      2.00000
     14     -42.5239      2.00000
     15     -42.4903      2.00000
     16     -42.4870      2.00000
     17     -42.4692      2.00000
     18     -42.4538      2.00000
     19     -42.4121      2.00000
     20     -42.3722      2.00000
     21     -42.2417      2.00000
     22     -42.2298      2.00000
     23     -42.0183      2.00000
     24     -41.9343      2.00000
     25     -41.9294      2.00000
     26     -41.8156      2.00000
     27     -41.7876      2.00000
     28     -41.7534      2.00000
     29     -41.6915      2.00000
     30     -41.6033      2.00000
     31     -21.8731      2.00000
     32     -21.7720      2.00000
     33     -21.7044      2.00000
     34     -21.5249      2.00000
     35     -21.4340      2.00000
     36     -21.3852      2.00000
     37     -21.3116      2.00000
     38     -21.2808      2.00000
     39     -21.2732      2.00000
     40     -21.1990      2.00000
     41     -21.1372      2.00000
     42     -21.0242      2.00000
     43     -20.9817      2.00000
     44     -20.8897      2.00000
     45     -20.8652      2.00000
     46     -20.8169      2.00000
     47     -20.7570      2.00000
     48     -20.6826      2.00000
     49     -20.5815      2.00000
     50     -20.5198      2.00000
     51     -20.4613      2.00000
     52     -20.4005      2.00000
     53     -20.3436      2.00000
     54     -20.2685      2.00000
     55     -20.1754      2.00000
     56     -20.1041      2.00000
     57     -20.0850      2.00000
     58     -20.0435      2.00000
     59     -19.9502      2.00000
     60     -19.8313      2.00000
     61     -19.7819      2.00000
     62     -19.5680      2.00000
     63      -4.4206      2.00000
     64      -4.3795      2.00000
     65      -4.3228      2.00000
     66      -4.2344      2.00000
     67      -4.1979      2.00000
     68      -4.0809      2.00000
     69      -4.0264      2.00000
     70      -3.9767      2.00000
     71      -3.9198      2.00000
     72      -3.8483      2.00000
     73      -3.8417      2.00000
     74      -3.7992      2.00000
     75      -3.7186      2.00000
     76      -3.6710      2.00000
     77      -3.6423      2.00000
     78      -3.6087      2.00000
     79      -3.5560      2.00000
     80      -3.5287      2.00000
     81      -3.4959      2.00000
     82      -3.4637      2.00000
     83      -3.4247      2.00000
     84      -3.3624      2.00000
     85      -3.3482      2.00000
     86      -3.3153      2.00000
     87      -3.2593      2.00000
     88      -3.2422      2.00000
     89      -3.1662      2.00000
     90      -3.1298      2.00000
     91      -3.1163      2.00000
     92      -3.0645      2.00000
     93      -3.0234      2.00000
     94      -3.0103      2.00000
     95      -2.9579      2.00000
     96      -2.9117      2.00000
     97      -2.8724      2.00000
     98      -2.8337      2.00000
     99      -2.8072      2.00000
    100      -2.7603      2.00000
    101      -2.7480      2.00000
    102      -2.6861      2.00000
    103      -2.6518      2.00000
    104      -2.6300      2.00000
    105      -2.5681      2.00000
    106      -2.5392      2.00000
    107      -2.4708      2.00000
    108      -2.4546      2.00000
    109      -2.4064      2.00000
    110      -2.3813      2.00000
    111      -2.3151      2.00000
    112      -2.2854      2.00000
    113      -2.2614      2.00000
    114      -2.2159      2.00000
    115      -2.1881      2.00000
    116      -2.1331      2.00000
    117      -2.1136      2.00000
    118      -2.0726      2.00000
    119      -2.0605      2.00000
    120      -2.0277      2.00000
    121      -2.0073      2.00000
    122      -1.9826      2.00000
    123      -1.8892      2.00000
    124      -1.8576      2.00000
    125      -1.8196      2.00000
    126      -1.7724      2.00000
    127      -1.7602      2.00000
    128      -1.6907      2.00000
    129      -1.6686      2.00000
    130      -1.6589      2.00000
    131      -1.5874      2.00000
    132      -1.5449      2.00000
[...]
    SETDIJ:  cpu time    0.0165: real time    0.0165
     EDDAV:  cpu time    0.3069: real time    0.3077
       DOS:  cpu time    0.0003: real time    0.0003
    CHARGE:  cpu time    0.0216: real time    0.0216
    MIXING:  cpu time    0.0013: real time    0.0013
    --------------------------------------------
      LOOP:  cpu time    0.3640: real time    0.3649

 eigenvalue-minimisations  :   584
 total energy-change (2. order) : 0.1591424E-02  (-0.2229945E-02)
 number of electron     314.0000004 magnetization 
 augmentation part       69.5716922 magnetization 

 eigenvalues of (default mixing * dielectric matrix)
  average eigenvalue GAMMA=   0.1490
  0.2321  0.0659

  free energy =  -0.276653039630E+03  energy without entropy=  -0.276484986599E+03


--------------------------------------------------------------------------------------------------------




--------------------------------------- Iteration     73(   4)  ---------------------------------------


    POTLOK:  cpu time    0.0175: real time    0.0176
    SETDIJ:  cpu time    0.0164: real time    0.0164
     EDDAV:  cpu time    0.2538: real time    0.2544
       DOS:  cpu time    0.0003: real time    0.0003
    CHARGE:  cpu time    0.0215: real time    0.0215
    MIXING:  cpu time    0.0014: real time    0.0014
    --------------------------------------------
      LOOP:  cpu time    0.3108: real time    0.3116

 eigenvalue-minimisations  :   472
 total energy-change (2. order) : 0.5706550E-03  (-0.8163053E-03)
 number of electron     314.0000004 magnetization 
 augmentation part       69.5721785 magnetization 

 eigenvalues of (default mixing * dielectric matrix)
  average eigenvalue GAMMA=   0.2642
  0.5573  0.1709  0.0645

  free energy =  -0.276652468975E+03  energy without entropy=  -0.276485591011E+03


--------------------------------------------------------------------------------------------------------




--------------------------------------- Iteration     73(   5)  ---------------------------------------


    POTLOK:  cpu time    0.0176: real time    0.0177
    SETDIJ:  cpu time    0.0164: real time    0.0165
     EDDAV:  cpu time    0.2372: real time    0.2378
       DOS:  cpu time    0.0003: real time    0.0003
    CHARGE:  cpu time    0.0216: real time    0.0216
    MIXING:  cpu time    0.0014: real time    0.0014
    --------------------------------------------
      LOOP:  cpu time    0.2945: real time    0.2953

 eigenvalue-minimisations  :   432
 total energy-change (2. order) :-0.5519234E-04  (-0.6304627E-04)
 number of electron     314.0000004 magnetization 
 augmentation part       69.5728278 magnetization 

 eigenvalues of (default mixing * dielectric matrix)
  average eigenvalue GAMMA=   0.2816
  0.6178  0.0644  0.2736  0.1707

  free energy =  -0.276652524167E+03  energy without entropy=  -0.276486265861E+03


--------------------------------------------------------------------------------------------------------




--------------------------------------- Iteration     73(   6)  ---------------------------------------


    POTLOK:  cpu time    0.0175: real time    0.0176
    SETDIJ:  cpu time    0.0163: real time    0.0164
     EDDAV:  cpu time    0.1834: real time    0.1839
       DOS:  cpu time    0.0003: real time    0.0003
    CHARGE:  cpu time    0.0216: real time    0.0216
    MIXING:  cpu time    0.0015: real time    0.0015
    --------------------------------------------
      LOOP:  cpu time    0.2406: real time    0.2412

 eigenvalue-minimisations  :   304
 total energy-change (2. order) : 0.1333030E-04  (-0.1497717E-04)
 number of electron     314.0000004 magnetization 
 augmentation part       69.5729837 magnetization 

 eigenvalues of (default mixing * dielectric matrix)
  average eigenvalue GAMMA=   0.2946
  0.5124  0.5124  0.0644  0.1656  0.2181

  free energy =  -0.276652510837E+03  energy without entropy=  -0.276486227688E+03


--------------------------------------------------------------------------------------------------------




--------------------------------------- Iteration     73(   7)  ---------------------------------------


    POTLOK:  cpu time    0.0175: real time    0.0175
    SETDIJ:  cpu time    0.0163: real time    0.0164
     EDDAV:  cpu time    0.1497: real time    0.1501
       DOS:  cpu time    0.0003: real time    0.0003
    --------------------------------------------
      LOOP:  cpu time    0.1837: real time    0.1842

 eigenvalue-minimisations  :   224
 total energy-change (2. order) : 0.3401947E-06  (-0.4572200E-05)
 number of electron     314.0000004 magnetization 
 augmentation part       69.5729837 magnetization 

  free energy =  -0.276652510497E+03  energy without entropy=  -0.276485920690E+03


--------------------------------------------------------------------------------------------------------




------------------------ aborting loop because EDIFF is reached ----------------------------------------


    CHARGE:  cpu time    0.0218: real time    0.0219
    FORLOC:  cpu time    0.0126: real time    0.0126
    FORNL :  cpu time    0.1188: real time    0.1191
    STRESS:  cpu time    0.3693: real time    0.3702
    FORCOR:  cpu time    0.0234: real time    0.0234
    FORHAR:  cpu time    0.0155: real time    0.0155
    MIXING:  cpu time    0.0010: real time    0.0010
    OFIELD:  cpu time    0.0000: real time    0.0000

  FORCE on cell =-STRESS in cart. coord.  units (eV):
  Direction    XX          YY          ZZ          XY          YZ          ZX
  --------------------------------------------------------------------------------------
  Alpha Z   605.65519   605.65519   605.65519
  Ewald   -5675.79319 -5495.66921 -5488.96740    32.52662   -10.69140   131.93963
  Hartree  2580.27653  2721.34635  2721.89089     1.80211   -13.32688    92.13484
  E(xc)   -1711.72630 -1711.56795 -1711.71258     0.10875    -0.06033     0.10575
  Local   -1559.82586 -1882.26195 -1883.22670   -31.30101    29.17288  -215.95877
  n-local -1808.82277 -1813.62437 -1805.10506    -0.32247     2.30666     1.04077
  augment  1099.99352  1101.23957  1098.97339    -0.64019    -1.23334    -1.75117
  Kinetic  6506.02573  6515.15436  6495.06250    -4.97469    -6.76151    -7.58534
  Fock        0.00000     0.00000     0.00000     0.00000     0.00000     0.00000
  -------------------------------------------------------------------------------------
  Total      35.78286    40.27200    32.57023    -2.80088    -0.59392    -0.07428
  in kB     107.03980   120.46847    97.42963    -8.37846    -1.77664    -0.22220
  external pressure =      108.31 kB  Pullay stress =        0.00 kB

  kinetic pressure (ideal gas correction) =     25.43 kB
  total pressure  =    133.74 kB
  Total+kin.   132.973     147.764     120.483      -8.848       1.309      -3.936


--------------------------------------------------------------------------------------------------------



  FREE ENERGIE OF THE ION-ELECTRON SYSTEM (eV)
  ---------------------------------------------------
  free  energy   TOTEN  =      -276.65251050 eV

  energy  without entropy=     -276.48592069  energy(sigma->0) =     -276.56921559
 
 d Force = 0.1319205E+00[ 0.650E-01, 0.199E+00]  d Energy = 0.1318603E+00 0.602E-04
 d Force = 0.6419631E+01[ 0.456E+01, 0.828E+01]  d Ewald  = 0.6421360E+01-0.173E-02


--------------------------------------------------------------------------------------------------------


    POTLOK:  cpu time    0.0337: real time    0.0338


--------------------------------------------------------------------------------------------------------


 stress matrix after NEB project (eV)
     35.78286     -2.80088     -0.07428
     -2.80088     40.27200     -0.59392
     -0.07428     -0.59392     32.57023
  FORCES: max atom, RMS     3.868789    1.345593
  FORCE total and by dimension   10.595211    3.179306
  Stress total and by dimension   63.083064   40.271995
           RANDOM_SEED =         400338442                0                0
   IONSTEP:  cpu time    0.0003: real time    0.0027

  ENERGY OF THE ELECTRON-ION-THERMOSTAT SYSTEM (eV)
  ---------------------------------------------------
% ion-electron   TOTEN  =      -276.652510  see above
  kinetic energy EKIN   =        12.821375
  kin. lattice  EKIN_LAT=         0.000000  (temperature 1626.07 K)
  nose potential ES     =         0.397098
  nose kinetic   EPS    =         0.015465
  ---------------------------------------------------
  total energy   ETOTAL =      -263.418573 eV

  maximum distance moved by ions :      0.45E-02

    WAVPRE:  cpu time    0.0474: real time    0.0506
    FEWALD:  cpu time    0.0017: real time    0.0017

 real space projection operators:
  total allocation   :       2530.41 KBytes
  max/ min on nodes  :        638.18        629.30

    ORTHCH:  cpu time    0.0195: real time    0.0195
 Prediction of Wavefunctions ALPHA= 1.983 BETA=-0.989
     LOOP+:  cpu time    2.7080: real time    2.7246


--------------------------------------- Iteration     74(   1)  ---------------------------------------


    POTLOK:  cpu time    0.0181: real time    0.0196
    SETDIJ:  cpu time    0.0162: real time    0.0162
     EDDAV:  cpu time    0.3135: real time    0.3143
       DOS:  cpu time    0.0002: real time    0.0002
    CHARGE:  cpu time    0.0219: real time    0.0219
    MIXING:  cpu time    0.0009: real time    0.0009
    --------------------------------------------
      LOOP:  cpu time    0.3708: real time    0.3732

 eigenvalue-minimisations  :   608
 total energy-change (2. order) :-0.8526216E-01  (-0.1952788E-02)
 number of electron     314.0000004 magnetization 
 augmentation part       69.5785376 magnetization 

  free energy =  -0.276737772992E+03  energy without entropy=  -0.276574103032E+03


--------------------------------------------------------------------------------------------------------




--------------------------------------- Iteration     74(   2)  ---------------------------------------


    POTLOK:  cpu time    0.0176: real time    0.0177
    SETDIJ:  cpu time    0.0166: real time    0.0166
     EDDAV:  cpu time    0.2230: real time    0.2235
       DOS:  cpu time    0.0002: real time    0.0002
    CHARGE:  cpu time    0.0215: real time    0.0216
    MIXING:  cpu time    0.0013: real time    0.0013
    --------------------------------------------
      LOOP:  cpu time    0.2802: real time    0.2809

 eigenvalue-minimisations  :   400
 total energy-change (2. order) :-0.9038962E-02  (-0.8568308E-02)
 number of electron     314.0000004 magnetization 
 augmentation part       69.5762125 magnetization 

 eigenvalues of (default mixing * dielectric matrix)
  average eigenvalue GAMMA=   0.1022
  0.1022

  free energy =  -0.276746811954E+03  energy without entropy=  -0.276585120005E+03


--------------------------------------------------------------------------------------------------------




--------------------------------------- Iteration     74(   3)  ---------------------------------------


    POTLOK:  cpu time    0.0175: real time    0.0176
    SETDIJ:  cpu time    0.0163: real time    0.0164
     EDDAV:  cpu time    0.2993: real time    0.3000
       DOS:  cpu time    0.0003: real time    0.0003
    CHARGE:  cpu time    0.0216: real time    0.0217
    MIXING:  cpu time    0.0014: real time    0.0014
    --------------------------------------------
      LOOP:  cpu time    0.3563: real time    0.3572

 eigenvalue-minimisations  :   576
 total energy-change (2. order) : 0.3217072E-02  (-0.3033960E-02)
 number of electron     314.0000004 magnetization 
 augmentation part       69.5807369 magnetization 

 eigenvalues of (default mixing * dielectric matrix)
  average eigenvalue GAMMA=   0.1330
  0.1912  0.0748

  free energy =  -0.276743594882E+03  energy without entropy=  -0.276574887748E+03


--------------------------------------------------------------------------------------------------------




--------------------------------------- Iteration     74(   4)  ---------------------------------------


    POTLOK:  cpu time    0.0176: real time    0.0176
    SETDIJ:  cpu time    0.0163: real time    0.0164
     EDDAV:  cpu time    0.2611: real time    0.2618
       DOS:  cpu time    0.0002: real time    0.0002
    CHARGE:  cpu time    0.0217: real time    0.0217
    MIXING:  cpu time    0.0015: real time    0.0015
    --------------------------------------------
      LOOP:  cpu time    0.3184: real time    0.3192

 eigenvalue-minimisations  :   488
 total energy-change (2. order) : 0.1429937E-03  (-0.3261709E-03)
 number of electron     314.0000004 magnetization 
 augmentation part       69.5809436 magnetization 

 eigenvalues of (default mixing * dielectric matrix)
  average eigenvalue GAMMA=   0.2040
  0.4018  0.1404  0.0698

  free energy =  -0.276743451888E+03  energy without entropy=  -0.276580910159E+03


--------------------------------------------------------------------------------------------------------




--------------------------------------- Iteration     74(   5)  ---------------------------------------


    POTLOK:  cpu time    0.0176: real time    0.0177
    SETDIJ:  cpu time    0.0163: real time    0.0163
     EDDAV:  cpu time    0.2370: real time    0.2376
       DOS:  cpu time    0.0003: real time    0.0003
    CHARGE:  cpu time    0.0216: real time    0.0217
    MIXING:  cpu time    0.0015: real time    0.0015
    --------------------------------------------
      LOOP:  cpu time    0.2942: real time    0.2949

 eigenvalue-minimisations  :   432
 total energy-change (2. order) :-0.1624881E-04  (-0.8689522E-04)
 number of electron     314.0000004 magnetization 
 augmentation part       69.5813694 magnetization 

 eigenvalues of (default mixing * dielectric matrix)
  average eigenvalue GAMMA=   0.2251
  0.5112  0.2039  0.0699  0.1154

  free energy =  -0.276743468137E+03  energy without entropy=  -0.276579446945E+03


--------------------------------------------------------------------------------------------------------




--------------------------------------- Iteration     74(   6)  ---------------------------------------


    POTLOK:  cpu time    0.0177: real time    0.0177
    SETDIJ:  cpu time    0.0164: real time    0.0165
     EDDAV:  cpu time    0.2073: real time    0.2078
       DOS:  cpu time    0.0003: real time    0.0002
    CHARGE:  cpu time    0.0217: real time    0.0218
    MIXING:  cpu time    0.0015: real time    0.0015
    --------------------------------------------
      LOOP:  cpu time    0.2649: real time    0.2655

 eigenvalue-minimisations  :   360
 total energy-change (2. order) : 0.3448617E-04  (-0.3512877E-04)
 number of electron     314.0000004 magnetization 
 augmentation part       69.5815473 magnetization 

 eigenvalues of (default mixing * dielectric matrix)
  average eigenvalue GAMMA=   0.2446
  0.4350  0.4350  0.0697  0.1647  0.1185

  free energy =  -0.276743433651E+03  energy without entropy=  -0.276579139505E+03


--------------------------------------------------------------------------------------------------------




--------------------------------------- Iteration     74(   7)  ---------------------------------------


    POTLOK:  cpu time    0.0176: real time    0.0177
    SETDIJ:  cpu time    0.0164: real time    0.0164
     EDDAV:  cpu time    0.1496: real time    0.1499
       DOS:  cpu time    0.0002: real time    0.0002
    --------------------------------------------
      LOOP:  cpu time    0.1838: real time    0.1842

 eigenvalue-minimisations  :   224
 total energy-change (2. order) : 0.4890451E-05  (-0.3372638E-05)
 number of electron     314.0000004 magnetization 
 augmentation part       69.5815473 magnetization 

  free energy =  -0.276743428760E+03  energy without entropy=  -0.276579361567E+03


--------------------------------------------------------------------------------------------------------




------------------------ aborting loop because EDIFF is reached ----------------------------------------


    CHARGE:  cpu time    0.0219: real time    0.0220
    FORLOC:  cpu time    0.0125: real time    0.0125
    FORNL :  cpu time    0.1189: real time    0.1192
    STRESS:  cpu time    0.3693: real time    0.3702
    FORCOR:  cpu time    0.0233: real time    0.0233
    FORHAR:  cpu time    0.0155: real time    0.0156
    MIXING:  cpu time    0.0010: real time    0.0010
    OFIELD:  cpu time    0.0000: real time    0.0000

  FORCE on cell =-STRESS in cart. coord.  units (eV):
  Direction    XX          YY          ZZ          XY          YZ          ZX
  --------------------------------------------------------------------------------------
  Alpha Z   605.65519   605.65519   605.65519
  Ewald   -5688.31859 -5484.57396 -5492.71763    22.79591   -18.97255   129.96318
  Hartree  2569.33609  2734.71875  2714.96679    -4.33647   -18.02200    91.53062
  E(xc)   -1711.64565 -1711.49548 -1711.60207     0.08906    -0.07778     0.09896
  Local   -1536.71134 -1907.35929 -1872.06746   -15.63548    42.45478  -213.79666
  n-local -1807.85061 -1812.19032 -1805.02889    -0.03320     2.56669     1.19473
  augment  1100.22215  1101.45305  1099.21047    -0.64933    -1.34005    -1.71584
  Kinetic  6504.20831  6512.97865  6494.61103    -5.46018    -7.10522    -7.92289
  Fock        0.00000     0.00000     0.00000     0.00000     0.00000     0.00000
  -------------------------------------------------------------------------------------
  Total      34.89555    39.18659    33.02743    -3.22970    -0.49613    -0.64790
  in kB     104.38551   117.22161    98.79730    -9.66122    -1.48410    -1.93811
  external pressure =      106.80 kB  Pullay stress =        0.00 kB

  kinetic pressure (ideal gas correction) =     25.76 kB
  total pressure  =    132.56 kB
  Total+kin.   130.619     145.359     121.696      -9.834       1.036      -5.828


--------------------------------------------------------------------------------------------------------



  FREE ENERGIE OF THE ION-ELECTRON SYSTEM (eV)
  ---------------------------------------------------
  free  energy   TOTEN  =      -276.74342876 eV

  energy  without entropy=     -276.57936157  energy(sigma->0) =     -276.66139516
 
 d Force = 0.8915491E-01[ 0.219E-01, 0.156E+00]  d Energy = 0.9091826E-01-0.176E-02
 d Force = 0.5178871E+01[ 0.328E+01, 0.708E+01]  d Ewald  = 0.5180573E+01-0.170E-02


--------------------------------------------------------------------------------------------------------


    POTLOK:  cpu time    0.0345: real time    0.0345


--------------------------------------------------------------------------------------------------------


 stress matrix after NEB project (eV)
     34.89555     -3.22970     -0.64790
     -3.22970     39.18659     -0.49613
     -0.64790     -0.49613     33.02743
  FORCES: max atom, RMS     3.716443    1.334263
  FORCE total and by dimension   10.505995    3.073318
  Stress total and by dimension   62.179522   39.186588
           RANDOM_SEED =         400338442                0                0
   IONSTEP:  cpu time    0.0003: real time    0.0017

  ENERGY OF THE ELECTRON-ION-THERMOSTAT SYSTEM (eV)
  ---------------------------------------------------
% ion-electron   TOTEN  =      -276.743429  see above
  kinetic energy EKIN   =        12.963845
  kin. lattice  EKIN_LAT=         0.000000  (temperature 1644.13 K)
  nose potential ES     =         0.344609
  nose kinetic   EPS    =         0.014218
  ---------------------------------------------------
  total energy   ETOTAL =      -263.420756 eV

  maximum distance moved by ions :      0.44E-02

    WAVPRE:  cpu time    0.0475: real time    0.0500
    FEWALD:  cpu time    0.0016: real time    0.0016

 real space projection operators:
  total allocation   :       2530.15 KBytes
  max/ min on nodes  :        640.00        628.80

    ORTHCH:  cpu time    0.0195: real time    0.0196
 Prediction of Wavefunctions ALPHA= 1.976 BETA=-0.982
     LOOP+:  cpu time    2.7533: real time    2.7679

