 running on   16 total cores
 distrk:  each k-point on   16 cores,    1 groups
 distr:  one band on    4 cores,    4 groups
 using from now: INCAR     
 vasp.5.4.4.18Apr17-6-g9f103f2a35 (build Oct 18 2021 17:02:20) complex          
  
 POSCAR found type information on POSCAR  F  Li
 POSCAR found :  2 types and      62 ions
 scaLAPACK will be used
 LDA part: xc-table for Pade appr. of Perdew
 POSCAR found type information on POSCAR  F  Li
 POSCAR found :  2 types and      62 ions

 ----------------------------------------------------------------------------- 
|                                                                             |
|           W    W    AA    RRRRR   N    N  II  N    N   GGGG   !!!           |
|           W    W   A  A   R    R  NN   N  II  NN   N  G    G  !!!           |
|           W    W  A    A  R    R  N N  N  II  N N  N  G       !!!           |
|           W WW W  AAAAAA  RRRRR   N  N N  II  N  N N  G  GGG   !            |
|           WW  WW  A    A  R   R   N   NN  II  N   NN  G    G                |
|           W    W  A    A  R    R  N    N  II  N    N   GGGG   !!!           |
|                                                                             |
|      The initial velocities result in a center of mass drift but            |
|      there must be no drift.                                                |
|      The drift will be removed !                                            |
|                                                                             |
 ----------------------------------------------------------------------------- 

 POSCAR, INCAR and KPOINTS ok, starting setup
 FFT: planning ...
 WAVECAR not read
 WARNING: random wavefunctions but no delay for mixing, default for NELMDL
 prediction of wavefunctions initialized - no I/O
 entering main loop
       N       E                     dE             d eps       ncg     rms          rms(c)
DAV:   1     0.355004220310E+04    0.35500E+04   -0.15952E+05   384   0.184E+03
DAV:   2     0.112343359152E+03   -0.34377E+04   -0.32495E+04   416   0.520E+02
DAV:   3    -0.244035710989E+03   -0.35638E+03   -0.35359E+03   480   0.163E+02
DAV:   4    -0.287869812880E+03   -0.43834E+02   -0.43482E+02   720   0.447E+01
DAV:   5    -0.293586314271E+03   -0.57165E+01   -0.57127E+01   544   0.125E+01    0.289E+01
DAV:   6    -0.275188117984E+03    0.18398E+02   -0.14307E+02   440   0.273E+01    0.173E+01
DAV:   7    -0.274626561226E+03    0.56156E+00   -0.79702E+01   536   0.167E+01    0.158E+01
DAV:   8    -0.274160346550E+03    0.46621E+00   -0.44918E+01   496   0.103E+01    0.118E+01
DAV:   9    -0.272283103159E+03    0.18772E+01   -0.31615E+00   536   0.705E+00    0.680E+00
DAV:  10    -0.272527934022E+03   -0.24483E+00   -0.71966E+00   448   0.481E+00    0.886E+00
DAV:  11    -0.274205523032E+03   -0.16776E+01   -0.16404E+01   480   0.569E+00    0.137E+01
DAV:  12    -0.272492469854E+03    0.17131E+01   -0.54512E+00   504   0.533E+00    0.575E+00
DAV:  13    -0.272301432460E+03    0.19104E+00   -0.15140E+00   432   0.232E+00    0.509E+00
DAV:  14    -0.272307334535E+03   -0.59021E-02   -0.25074E+00   440   0.178E+00    0.359E+00
DAV:  15    -0.272282526998E+03    0.24808E-01   -0.14583E-01   480   0.890E-01    0.267E+00
DAV:  16    -0.272256127235E+03    0.26400E-01   -0.16021E-01   464   0.646E-01    0.537E-01
DAV:  17    -0.272270116858E+03   -0.13990E-01   -0.13746E-01   448   0.440E-01    0.231E+00
DAV:  18    -0.272279862027E+03   -0.97452E-02   -0.57606E-01   536   0.719E-01    0.256E+00
DAV:  19    -0.272265792346E+03    0.14070E-01   -0.38798E-02   416   0.286E-01    0.162E+00
DAV:  20    -0.272258925270E+03    0.68671E-02   -0.37371E-02   464   0.225E-01    0.358E-01
DAV:  21    -0.272260253252E+03   -0.13280E-02   -0.13889E-03   448   0.893E-02    0.239E-01
DAV:  22    -0.272260297818E+03   -0.44565E-04   -0.10552E-03   424   0.367E-02    0.461E-02
DAV:  23    -0.272260454132E+03   -0.15631E-03   -0.11596E-03   400   0.377E-02    0.208E-01
DAV:  24    -0.272260346240E+03    0.10789E-03   -0.10663E-03   368   0.349E-02    0.448E-02
DAV:  25    -0.272260360985E+03   -0.14745E-04   -0.48223E-05   272   0.134E-02    0.413E-02
DAV:  26    -0.272260357520E+03    0.34652E-05   -0.62709E-05   216   0.864E-03
    1 T=  1124. E= -.26339684E+03 F= -.27226036E+03 E0= -.27221881E+03  EK= 0.88635E+01 SP= 0.00E+00 SK= 0.00E+00
 bond charge predicted
       N       E                     dE             d eps       ncg     rms          rms(c)
DAV:   1    -0.271696857112E+03    0.56350E+00   -0.70335E+01   384   0.256E+01    0.132E+00
DAV:   2    -0.272041416126E+03   -0.34456E+00   -0.38304E+00   432   0.391E+00    0.700E+00
DAV:   3    -0.271905240580E+03    0.13618E+00   -0.20853E+00   560   0.153E+00    0.476E+00
DAV:   4    -0.271820332998E+03    0.84908E-01   -0.38474E-01   488   0.948E-01    0.777E-01
DAV:   5    -0.271826418831E+03   -0.60858E-02   -0.28318E-02   456   0.423E-01    0.713E-01
DAV:   6    -0.271824556077E+03    0.18628E-02   -0.17946E-02   536   0.247E-01    0.347E-01
DAV:   7    -0.271823251983E+03    0.13041E-02   -0.40827E-03   464   0.219E-01    0.273E-01
DAV:   8    -0.271822383696E+03    0.86829E-03   -0.37360E-03   464   0.207E-01    0.709E-02
DAV:   9    -0.271822464051E+03   -0.80354E-04   -0.97155E-04   472   0.802E-02    0.598E-02
DAV:  10    -0.271822486101E+03   -0.22051E-04   -0.55502E-04   472   0.313E-02    0.106E-01
DAV:  11    -0.271822461047E+03    0.25055E-04   -0.48475E-04   288   0.237E-02    0.467E-02
DAV:  12    -0.271822459296E+03    0.17502E-05   -0.34696E-05   224   0.127E-02
    2 T=  1070. E= -.26339565E+03 F= -.27182246E+03 E0= -.27178234E+03  EK= 0.84368E+01 SP= -.15E-01 SK= 0.46E-02
 bond charge predicted
 prediction of wavefunctions
       N       E                     dE             d eps       ncg     rms          rms(c)
DAV:   1    -0.271451719496E+03    0.37074E+00   -0.88485E-01   384   0.603E+00    0.547E-01
DAV:   2    -0.271553051372E+03   -0.10133E+00   -0.10683E+00   392   0.198E+00    0.561E+00
DAV:   3    -0.271476352124E+03    0.76699E-01   -0.71364E-01   552   0.732E-01    0.898E-01
DAV:   4    -0.271489052932E+03   -0.12701E-01   -0.57021E-02   432   0.315E-01    0.915E-01
DAV:   5    -0.271486929070E+03    0.21239E-02   -0.22002E-02   472   0.202E-01    0.271E-01
DAV:   6    -0.271486812168E+03    0.11690E-03   -0.26735E-03   480   0.100E-01    0.137E-01
DAV:   7    -0.271486662669E+03    0.14950E-03   -0.32670E-04   400   0.548E-02    0.859E-02
DAV:   8    -0.271486607018E+03    0.55651E-04   -0.11215E-04   424   0.372E-02    0.506E-02
DAV:   9    -0.271486583387E+03    0.23631E-04   -0.51899E-05   408   0.275E-02    0.185E-02
DAV:  10    -0.271486583723E+03   -0.33606E-06   -0.22987E-05   248   0.161E-02
    3 T=  1031. E= -.26339411E+03 F= -.27148658E+03 E0= -.27144765E+03  EK= 0.81322E+01 SP= -.60E-01 SK= 0.20E-01
 bond charge predicted
 prediction of wavefunctions
       N       E                     dE             d eps       ncg     rms          rms(c)
DAV:   1    -0.271267415755E+03    0.21917E+00   -0.35839E-03   568   0.476E+00    0.926E-02
DAV:   2    -0.271270802711E+03   -0.33870E-02   -0.34889E-02   392   0.529E-01    0.649E-01
DAV:   3    -0.271269637629E+03    0.11651E-02   -0.11250E-02   576   0.108E-01    0.103E-01
DAV:   4    -0.271269789593E+03   -0.15196E-03   -0.60311E-04   432   0.430E-02    0.105E-01
DAV:   5    -0.271269759998E+03    0.29595E-04   -0.27832E-04   304   0.200E-02    0.338E-02
DAV:   6    -0.271269760965E+03   -0.96719E-06   -0.38981E-05   216   0.133E-02
    4 T=  1010. E= -.26339439E+03 F= -.27126976E+03 E0= -.27123191E+03  EK= 0.79648E+01 SP= -.14E+00 SK= 0.49E-01
 bond charge predicted
 prediction of wavefunctions
       N       E                     dE             d eps       ncg     rms          rms(c)
DAV:   1    -0.271171447648E+03    0.98312E-01   -0.44006E-03   584   0.477E+00    0.438E-02
DAV:   2    -0.271173942211E+03   -0.24946E-02   -0.24891E-02   400   0.504E-01    0.208E-01
DAV:   3    -0.271173857102E+03    0.85109E-04   -0.16322E-03   608   0.543E-02    0.867E-02
DAV:   4    -0.271173847193E+03    0.99093E-05   -0.11932E-04   336   0.192E-02    0.529E-02
DAV:   5    -0.271173844778E+03    0.24153E-05   -0.15665E-05   232   0.804E-03
    5 T=  1007. E= -.26339457E+03 F= -.27117384E+03 E0= -.27113702E+03  EK= 0.79392E+01 SP= -.25E+00 SK= 0.90E-01
 bond charge predicted
 prediction of wavefunctions
       N       E                     dE             d eps       ncg     rms          rms(c)
DAV:   1    -0.271190952473E+03   -0.17105E-01   -0.65231E-03   520   0.486E+00    0.138E-01
DAV:   2    -0.271197974766E+03   -0.70223E-02   -0.67543E-02   400   0.586E-01    0.130E+00
DAV:   3    -0.271193058047E+03    0.49167E-02   -0.40420E-02   560   0.197E-01    0.211E-01
DAV:   4    -0.271193653574E+03   -0.59553E-03   -0.14273E-03   424   0.687E-02    0.108E-01
DAV:   5    -0.271193663264E+03   -0.96905E-05   -0.20101E-04   416   0.221E-02    0.711E-02
DAV:   6    -0.271193655229E+03    0.80350E-05   -0.32004E-05   224   0.115E-02
    6 T=  1021. E= -.26339563E+03 F= -.27119366E+03 E0= -.27115795E+03  EK= 0.80506E+01 SP= -.40E+00 SK= 0.14E+00
 bond charge predicted
 prediction of wavefunctions
       N       E                     dE             d eps       ncg     rms          rms(c)
DAV:   1    -0.271313300416E+03   -0.11964E+00   -0.84017E-03   552   0.504E+00    0.165E-01
DAV:   2    -0.271319359357E+03   -0.60589E-02   -0.60142E-02   416   0.606E-01    0.963E-01
DAV:   3    -0.271315966404E+03    0.33930E-02   -0.27760E-02   560   0.197E-01    0.208E-01
DAV:   4    -0.271316471828E+03   -0.50542E-03   -0.36393E-03   424   0.878E-02    0.264E-01
DAV:   5    -0.271316386889E+03    0.84939E-04   -0.35284E-03   432   0.604E-02    0.197E-01
DAV:   6    -0.271316270520E+03    0.11637E-03   -0.10133E-03   400   0.439E-02    0.250E-02
DAV:   7    -0.271316280622E+03   -0.10102E-04   -0.35905E-05   280   0.195E-02    0.121E-02
DAV:   8    -0.271316281288E+03   -0.66548E-06   -0.62655E-06   216   0.914E-03
    7 T=  1051. E= -.26339635E+03 F= -.27131628E+03 E0= -.27128137E+03  EK= 0.82889E+01 SP= -.58E+00 SK= 0.21E+00
 bond charge predicted
 prediction of wavefunctions
       N       E                     dE             d eps       ncg     rms          rms(c)
DAV:   1    -0.271522040643E+03   -0.20576E+00   -0.13845E-02   568   0.519E+00    0.126E-01
DAV:   2    -0.271526720363E+03   -0.46797E-02   -0.48150E-02   424   0.650E-01    0.376E-01
DAV:   3    -0.271526572752E+03    0.14761E-03   -0.10258E-02   592   0.129E-01    0.326E-01
DAV:   4    -0.271526366383E+03    0.20637E-03   -0.33125E-03   512   0.802E-02    0.159E-01
DAV:   5    -0.271526311011E+03    0.55372E-04   -0.11324E-03   400   0.435E-02    0.912E-02
DAV:   6    -0.271526297308E+03    0.13703E-04   -0.30769E-04   344   0.250E-02    0.430E-02
DAV:   7    -0.271526289730E+03    0.75785E-05   -0.43759E-05   216   0.159E-02
    8 T=  1096. E= -.26339785E+03 F= -.27152629E+03 E0= -.27149224E+03  EK= 0.86392E+01 SP= -.79E+00 SK= 0.28E+00
 bond charge predicted
 prediction of wavefunctions
       N       E                     dE             d eps       ncg     rms          rms(c)
DAV:   1    -0.271795668894E+03   -0.26937E+00   -0.18823E-02   520   0.536E+00    0.631E-02
DAV:   2    -0.271800435011E+03   -0.47661E-02   -0.47584E-02   424   0.634E-01    0.275E-01
DAV:   3    -0.271800308632E+03    0.12638E-03   -0.31001E-03   608   0.833E-02    0.892E-02
DAV:   4    -0.271800312403E+03   -0.37706E-05   -0.25871E-04   432   0.287E-02    0.550E-02
DAV:   5    -0.271800307631E+03    0.47715E-05   -0.11586E-04   248   0.143E-02    0.464E-02
DAV:   6    -0.271800305149E+03    0.24821E-05   -0.57579E-05   224   0.136E-02
    9 T=  1152. E= -.26339805E+03 F= -.27180031E+03 E0= -.27176723E+03  EK= 0.90821E+01 SP= -.10E+01 SK= 0.35E+00
Information: wavefunction orthogonal band  192  0.8878
 bond charge predicted
 prediction of wavefunctions
       N       E                     dE             d eps       ncg     rms          rms(c)
DAV:   1    -0.272112604310E+03   -0.31230E+00   -0.15922E-02   568   0.556E+00    0.862E-02
DAV:   2    -0.272117695242E+03   -0.50909E-02   -0.51475E-02   408   0.686E-01    0.334E-01
DAV:   3    -0.272117467128E+03    0.22811E-03   -0.65174E-03   600   0.110E-01    0.221E-01
DAV:   4    -0.272117374601E+03    0.92527E-04   -0.16276E-03   496   0.557E-02    0.986E-02
DAV:   5    -0.272117352942E+03    0.21659E-04   -0.29281E-04   360   0.270E-02    0.581E-02
DAV:   6    -0.272117347508E+03    0.54332E-05   -0.78586E-05   240   0.132E-02
   10 T=  1217. E= -.26339793E+03 F= -.27211735E+03 E0= -.27208485E+03  EK= 0.95966E+01 SP= -.13E+01 SK= 0.42E+00
 bond charge predicted
 prediction of wavefunctions
       N       E                     dE             d eps       ncg     rms          rms(c)
DAV:   1    -0.272457288393E+03   -0.33994E+00   -0.23362E-02   576   0.574E+00    0.987E-02
DAV:   2    -0.272462817052E+03   -0.55287E-02   -0.56269E-02   416   0.708E-01    0.336E-01
DAV:   3    -0.272462620959E+03    0.19609E-03   -0.79421E-03   584   0.125E-01    0.260E-01
DAV:   4    -0.272462445260E+03    0.17570E-03   -0.24826E-03   528   0.628E-02    0.975E-02
DAV:   5    -0.272462435492E+03    0.97680E-05   -0.25230E-04   368   0.243E-02    0.602E-02
DAV:   6    -0.272462428944E+03    0.65474E-05   -0.63323E-05   224   0.129E-02
   11 T=  1290. E= -.26339815E+03 F= -.27246243E+03 E0= -.27243068E+03  EK= 0.10168E+02 SP= -.16E+01 SK= 0.48E+00
 bond charge predicted
 prediction of wavefunctions
       N       E                     dE             d eps       ncg     rms          rms(c)
DAV:   1    -0.272813809908E+03   -0.35137E+00   -0.21002E-02   592   0.591E+00    0.140E-01
DAV:   2    -0.272819366954E+03   -0.55570E-02   -0.58709E-02   392   0.738E-01    0.422E-01
DAV:   3    -0.272818657313E+03    0.70964E-03   -0.13139E-02   592   0.167E-01    0.280E-01
DAV:   4    -0.272818495631E+03    0.16168E-03   -0.25759E-03   488   0.669E-02    0.119E-01
DAV:   5    -0.272818488450E+03    0.71803E-05   -0.54799E-04   400   0.321E-02    0.762E-02
DAV:   6    -0.272818470417E+03    0.18033E-04   -0.15231E-04   248   0.186E-02    0.437E-02
DAV:   7    -0.272818468155E+03    0.22625E-05   -0.29854E-05   224   0.131E-02
   12 T=  1367. E= -.26339453E+03 F= -.27281847E+03 E0= -.27278703E+03  EK= 0.10782E+02 SP= -.19E+01 SK= 0.53E+00
 bond charge predicted
 prediction of wavefunctions
       N       E                     dE             d eps       ncg     rms          rms(c)
DAV:   1    -0.273180745330E+03   -0.36227E+00   -0.23559E-02   592   0.610E+00    0.173E-01
DAV:   2    -0.273187788009E+03   -0.70427E-02   -0.69182E-02   400   0.788E-01    0.682E-01
DAV:   3    -0.273186114681E+03    0.16733E-02   -0.24297E-02   584   0.202E-01    0.424E-01
DAV:   4    -0.273185708840E+03    0.40584E-03   -0.70163E-03   472   0.107E-01    0.121E-01
DAV:   5    -0.273185760832E+03   -0.51991E-04   -0.10767E-03   408   0.539E-02    0.117E-01
DAV:   6    -0.273185708320E+03    0.52512E-04   -0.44876E-04   352   0.321E-02    0.368E-02
DAV:   7    -0.273185710806E+03   -0.24864E-05   -0.10501E-04   256   0.174E-02    0.266E-02
DAV:   8    -0.273185710149E+03    0.65718E-06   -0.38848E-05   232   0.128E-02
   13 T=  1449. E= -.26339880E+03 F= -.27318571E+03 E0= -.27315432E+03  EK= 0.11427E+02 SP= -.22E+01 SK= 0.57E+00
 bond charge predicted
 prediction of wavefunctions
       N       E                     dE             d eps       ncg     rms          rms(c)
DAV:   1    -0.273534777521E+03   -0.34907E+00   -0.28498E-02   616   0.628E+00    0.135E-01
DAV:   2    -0.273540616979E+03   -0.58395E-02   -0.60834E-02   392   0.780E-01    0.357E-01
DAV:   3    -0.273540474907E+03    0.14207E-03   -0.10459E-02   600   0.141E-01    0.313E-01
DAV:   4    -0.273540289875E+03    0.18503E-03   -0.39811E-03   528   0.819E-02    0.139E-01
DAV:   5    -0.273540222470E+03    0.67405E-04   -0.76743E-04   424   0.465E-02    0.476E-02
DAV:   6    -0.273540220373E+03    0.20970E-05   -0.13621E-04   320   0.223E-02    0.357E-02
DAV:   7    -0.273540218689E+03    0.16845E-05   -0.81848E-05   224   0.146E-02
   14 T=  1533. E= -.26339975E+03 F= -.27354022E+03 E0= -.27350866E+03  EK= 0.12087E+02 SP= -.25E+01 SK= 0.59E+00
 bond charge predicted
 prediction of wavefunctions
       N       E                     dE             d eps       ncg     rms          rms(c)
DAV:   1    -0.273870797305E+03   -0.33058E+00   -0.31058E-02   560   0.644E+00    0.966E-02
DAV:   2    -0.273877178377E+03   -0.63811E-02   -0.63845E-02   400   0.815E-01    0.305E-01
DAV:   3    -0.273876919330E+03    0.25905E-03   -0.55874E-03   616   0.114E-01    0.168E-01
DAV:   4    -0.273876892587E+03    0.26744E-04   -0.17014E-03   480   0.517E-02    0.123E-01
DAV:   5    -0.273876838436E+03    0.54151E-04   -0.30578E-04   344   0.279E-02    0.459E-02
DAV:   6    -0.273876838903E+03   -0.46704E-06   -0.79079E-05   240   0.165E-02
   15 T=  1617. E= -.26339929E+03 F= -.27387684E+03 E0= -.27384502E+03  EK= 0.12752E+02 SP= -.29E+01 SK= 0.60E+00
 bond charge predicted
 prediction of wavefunctions
       N       E                     dE             d eps       ncg     rms          rms(c)
DAV:   1    -0.274191653976E+03   -0.31482E+00   -0.29725E-02   552   0.662E+00    0.110E-01
DAV:   2    -0.274198153612E+03   -0.64996E-02   -0.64751E-02   400   0.849E-01    0.363E-01
DAV:   3    -0.274197838412E+03    0.31520E-03   -0.59101E-03   592   0.131E-01    0.265E-01
DAV:   4    -0.274197665886E+03    0.17253E-03   -0.23841E-03   504   0.666E-02    0.104E-01
DAV:   5    -0.274197645612E+03    0.20274E-04   -0.29097E-04   400   0.287E-02    0.549E-02
DAV:   6    -0.274197634594E+03    0.11019E-04   -0.42739E-05   232   0.153E-02    0.434E-02
DAV:   7    -0.274197615419E+03    0.19175E-04   -0.25297E-05   240   0.202E-02    0.297E-02
DAV:   8    -0.274197606210E+03    0.92092E-05   -0.32304E-05   264   0.206E-02
   16 T=  1701. E= -.26340101E+03 F= -.27419761E+03 E0= -.27416515E+03  EK= 0.13415E+02 SP= -.32E+01 SK= 0.58E+00
 bond charge predicted
 prediction of wavefunctions
       N       E                     dE             d eps       ncg     rms          rms(c)
DAV:   1    -0.274485663510E+03   -0.28805E+00   -0.32066E-02   584   0.675E+00    0.173E-01
DAV:   2    -0.274492411100E+03   -0.67476E-02   -0.70496E-02   400   0.893E-01    0.343E-01
DAV:   3    -0.274492227949E+03    0.18315E-03   -0.57987E-03   576   0.153E-01    0.280E-01
DAV:   4    -0.274492038549E+03    0.18940E-03   -0.33290E-03   504   0.933E-02    0.188E-01
DAV:   5    -0.274491978113E+03    0.60436E-04   -0.17538E-03   432   0.567E-02    0.149E-01
DAV:   6    -0.274491918583E+03    0.59530E-04   -0.46943E-04   400   0.383E-02    0.477E-02
DAV:   7    -0.274491919311E+03   -0.72763E-06   -0.14572E-04   320   0.239E-02    0.273E-02
DAV:   8    -0.274491916450E+03    0.28608E-05   -0.38615E-05   216   0.141E-02
   17 T=  1784. E= -.26339879E+03 F= -.27449192E+03 E0= -.27445912E+03  EK= 0.14066E+02 SP= -.35E+01 SK= 0.55E+00
 bond charge predicted
 prediction of wavefunctions
       N       E                     dE             d eps       ncg     rms          rms(c)
DAV:   1    -0.274752692177E+03   -0.26077E+00   -0.33482E-02   552   0.689E+00    0.106E-01
DAV:   2    -0.274760417089E+03   -0.77249E-02   -0.76260E-02   416   0.933E-01    0.341E-01
DAV:   3    -0.274760212280E+03    0.20481E-03   -0.45384E-03   592   0.118E-01    0.195E-01
DAV:   4    -0.274760172394E+03    0.39886E-04   -0.11568E-03   472   0.606E-02    0.136E-01
DAV:   5    -0.274760112440E+03    0.59954E-04   -0.20604E-04   416   0.308E-02    0.447E-02
DAV:   6    -0.274760110611E+03    0.18297E-05   -0.56362E-05   264   0.194E-02
   18 T=  1863. E= -.26339851E+03 F= -.27476011E+03 E0= -.27472712E+03  EK= 0.14693E+02 SP= -.38E+01 SK= 0.51E+00
 bond charge predicted
 prediction of wavefunctions
       N       E                     dE             d eps       ncg     rms          rms(c)
DAV:   1    -0.274991009441E+03   -0.23090E+00   -0.41849E-02   560   0.704E+00    0.100E-01
DAV:   2    -0.274999748214E+03   -0.87388E-02   -0.87971E-02   432   0.959E-01    0.216E-01
DAV:   3    -0.274999787264E+03   -0.39051E-04   -0.48274E-03   600   0.116E-01    0.201E-01
DAV:   4    -0.274999697158E+03    0.90107E-04   -0.10383E-03   504   0.499E-02    0.967E-02
DAV:   5    -0.274999671958E+03    0.25200E-04   -0.16997E-04   336   0.266E-02    0.591E-02
DAV:   6    -0.274999675620E+03   -0.36619E-05   -0.82070E-05   288   0.214E-02
   19 T=  1939. E= -.26339871E+03 F= -.27499968E+03 E0= -.27496628E+03  EK= 0.15288E+02 SP= -.41E+01 SK= 0.45E+00
 bond charge predicted
 prediction of wavefunctions
       N       E                     dE             d eps       ncg     rms          rms(c)
DAV:   1    -0.275196700058E+03   -0.19703E+00   -0.44024E-02   560   0.712E+00    0.170E-01
DAV:   2    -0.275206294850E+03   -0.95948E-02   -0.95915E-02   432   0.102E+00    0.382E-01
DAV:   3    -0.275205902537E+03    0.39231E-03   -0.93127E-03   584   0.185E-01    0.371E-01
DAV:   4    -0.275205586896E+03    0.31564E-03   -0.56367E-03   536   0.884E-02    0.150E-01
DAV:   5    -0.275205541359E+03    0.45537E-04   -0.77812E-04   440   0.514E-02    0.378E-02
DAV:   6    -0.275205542274E+03   -0.91557E-06   -0.50881E-05   312   0.216E-02
   20 T=  2009. E= -.26339957E+03 F= -.27520554E+03 E0= -.27517312E+03  EK= 0.15838E+02 SP= -.44E+01 SK= 0.39E+00
 bond charge predicted
 prediction of wavefunctions
       N       E                     dE             d eps       ncg     rms          rms(c)
DAV:   1    -0.275362737620E+03   -0.15720E+00   -0.37538E-02   584   0.724E+00    0.209E-01
DAV:   2    -0.275375617939E+03   -0.12880E-01   -0.12773E-01   408   0.107E+00    0.845E-01
DAV:   3    -0.275371531550E+03    0.40864E-02   -0.21354E-02   568   0.255E-01    0.207E-01
DAV:   4    -0.275371815100E+03   -0.28355E-03   -0.31311E-03   472   0.850E-02    0.234E-01
DAV:   5    -0.275371648980E+03    0.16612E-03   -0.12591E-03   432   0.520E-02    0.678E-02
DAV:   6    -0.275371652797E+03   -0.38175E-05   -0.12163E-04   368   0.252E-02    0.464E-02
DAV:   7    -0.275371648876E+03    0.39215E-05   -0.59966E-05   264   0.219E-02
   21 T=  2071. E= -.26340102E+03 F= -.27537165E+03 E0= -.27533931E+03  EK= 0.16329E+02 SP= -.47E+01 SK= 0.32E+00
 bond charge predicted
 prediction of wavefunctions
       N       E                     dE             d eps       ncg     rms          rms(c)
DAV:   1    -0.275486537498E+03   -0.11488E+00   -0.41423E-02   520   0.730E+00    0.163E-01
DAV:   2    -0.275498144217E+03   -0.11607E-01   -0.10427E-01   432   0.107E+00    0.758E-01
DAV:   3    -0.275496342818E+03    0.18014E-02   -0.70524E-03   592   0.189E-01    0.157E-01
DAV:   4    -0.275496479755E+03   -0.13694E-03   -0.12705E-03   520   0.784E-02    0.147E-01
DAV:   5    -0.275496421057E+03    0.58699E-04   -0.90536E-04   432   0.377E-02    0.830E-02
DAV:   6    -0.275496406535E+03    0.14522E-04   -0.13306E-04   336   0.241E-02    0.470E-02
DAV:   7    -0.275496404882E+03    0.16529E-05   -0.66457E-05   240   0.193E-02
   22 T=  2125. E= -.26340074E+03 F= -.27549640E+03 E0= -.27546360E+03  EK= 0.16754E+02 SP= -.49E+01 SK= 0.25E+00
 bond charge predicted
 prediction of wavefunctions
       N       E                     dE             d eps       ncg     rms          rms(c)
DAV:   1    -0.275566204427E+03   -0.69798E-01   -0.23936E-02   616   0.738E+00    0.147E-01
DAV:   2    -0.275575596648E+03   -0.93922E-02   -0.95322E-02   400   0.105E+00    0.405E-01
DAV:   3    -0.275574894674E+03    0.70197E-03   -0.79380E-03   584   0.158E-01    0.158E-01
DAV:   4    -0.275574943486E+03   -0.48812E-04   -0.18147E-03   496   0.655E-02    0.190E-01
DAV:   5    -0.275574824905E+03    0.11858E-03   -0.10015E-03   416   0.393E-02    0.501E-02
DAV:   6    -0.275574832173E+03   -0.72678E-05   -0.78121E-05   312   0.216E-02
   23 T=  2168. E= -.26340074E+03 F= -.27557483E+03 E0= -.27554118E+03  EK= 0.17098E+02 SP= -.51E+01 SK= 0.18E+00
 bond charge predicted
 prediction of wavefunctions
       N       E                     dE             d eps       ncg     rms          rms(c)
DAV:   1    -0.275594032095E+03   -0.19207E-01   -0.22680E-02   624   0.742E+00    0.129E-01
DAV:   2    -0.275603383812E+03   -0.93517E-02   -0.91825E-02   392   0.106E+00    0.394E-01
DAV:   3    -0.275602867723E+03    0.51609E-03   -0.62421E-03   584   0.146E-01    0.171E-01
DAV:   4    -0.275602889155E+03   -0.21432E-04   -0.17559E-03   520   0.610E-02    0.162E-01
DAV:   5    -0.275602803656E+03    0.85499E-04   -0.52874E-04   408   0.347E-02    0.592E-02
DAV:   6    -0.275602801371E+03    0.22852E-05   -0.38838E-05   312   0.198E-02
   24 T=  2200. E= -.26340266E+03 F= -.27560280E+03 E0= -.27556818E+03  EK= 0.17348E+02 SP= -.53E+01 SK= 0.12E+00
 bond charge predicted
 prediction of wavefunctions
       N       E                     dE             d eps       ncg     rms          rms(c)
DAV:   1    -0.275573923838E+03    0.28880E-01   -0.27232E-02   640   0.745E+00    0.178E-01
DAV:   2    -0.275584951269E+03   -0.11027E-01   -0.10453E-01   400   0.110E+00    0.528E-01
DAV:   3    -0.275583259793E+03    0.16915E-02   -0.50433E-03   568   0.212E-01    0.161E-01
DAV:   4    -0.275583299813E+03   -0.40020E-04   -0.21394E-03   456   0.774E-02    0.149E-01
DAV:   5    -0.275583234308E+03    0.65505E-04   -0.81983E-04   424   0.409E-02    0.734E-02
DAV:   6    -0.275583233876E+03    0.43238E-06   -0.20196E-04   320   0.250E-02    0.656E-02
DAV:   7    -0.275583220839E+03    0.13037E-04   -0.80866E-05   248   0.183E-02    0.390E-02
DAV:   8    -0.275583213585E+03    0.72535E-05   -0.28820E-05   296   0.207E-02
   25 T=  2220. E= -.26340431E+03 F= -.27558321E+03 E0= -.27554673E+03  EK= 0.17506E+02 SP= -.54E+01 SK= 0.67E-01
 bond charge predicted
 prediction of wavefunctions
       N       E                     dE             d eps       ncg     rms          rms(c)
DAV:   1    -0.275507360998E+03    0.75860E-01   -0.43082E-02   520   0.748E+00    0.221E-01
DAV:   2    -0.275521105287E+03   -0.13744E-01   -0.13861E-01   416   0.116E+00    0.765E-01
DAV:   3    -0.275518548396E+03    0.25569E-02   -0.22983E-02   568   0.253E-01    0.151E-01
DAV:   4    -0.275518888994E+03   -0.34060E-03   -0.12115E-03   488   0.922E-02    0.230E-01
DAV:   5    -0.275518669596E+03    0.21940E-03   -0.92653E-04   464   0.553E-02    0.509E-02
DAV:   6    -0.275518700198E+03   -0.30603E-04   -0.28472E-04   368   0.250E-02    0.674E-02
DAV:   7    -0.275518686596E+03    0.13603E-04   -0.14744E-04   232   0.185E-02    0.244E-02
DAV:   8    -0.275518686550E+03    0.46315E-07   -0.15175E-05   216   0.123E-02
   26 T=  2229. E= -.26340411E+03 F= -.27551869E+03 E0= -.27548045E+03  EK= 0.17572E+02 SP= -.55E+01 SK= 0.30E-01
Information: wavefunction orthogonal band  191  0.8882
 bond charge predicted
 prediction of wavefunctions
       N       E                     dE             d eps       ncg     rms          rms(c)
DAV:   1    -0.275400343273E+03    0.11834E+00   -0.56002E-02   520   0.749E+00    0.118E-01
DAV:   2    -0.275412634384E+03   -0.12291E-01   -0.12424E-01   424   0.114E+00    0.212E-01
DAV:   3    -0.275412723574E+03   -0.89190E-04   -0.55879E-03   632   0.149E-01    0.154E-01
DAV:   4    -0.275412648658E+03    0.74916E-04   -0.77289E-04   560   0.558E-02    0.992E-02
DAV:   5    -0.275412617293E+03    0.31365E-04   -0.17532E-04   336   0.250E-02    0.459E-02
DAV:   6    -0.275412617387E+03   -0.93383E-07   -0.78013E-05   240   0.173E-02
   27 T=  2225. E= -.26340544E+03 F= -.27541262E+03 E0= -.27537294E+03  EK= 0.17544E+02 SP= -.55E+01 SK= 0.80E-02
 bond charge predicted
 prediction of wavefunctions
       N       E                     dE             d eps       ncg     rms          rms(c)
DAV:   1    -0.275256532157E+03    0.15609E+00   -0.39041E-02   632   0.747E+00    0.124E-01
DAV:   2    -0.275268512772E+03   -0.11981E-01   -0.11800E-01   400   0.112E+00    0.495E-01
DAV:   3    -0.275267710938E+03    0.80183E-03   -0.92051E-03   592   0.164E-01    0.144E-01
DAV:   4    -0.275267735473E+03   -0.24535E-04   -0.77790E-04   488   0.606E-02    0.987E-02
DAV:   5    -0.275267707878E+03    0.27595E-04   -0.13147E-04   408   0.254E-02    0.659E-02
DAV:   6    -0.275267698482E+03    0.93961E-05   -0.37349E-05   256   0.174E-02
   28 T=  2210. E= -.26340402E+03 F= -.27526770E+03 E0= -.27522581E+03  EK= 0.17429E+02 SP= -.56E+01 SK= 0.30E-04
 bond charge predicted
 prediction of wavefunctions
       N       E                     dE             d eps       ncg     rms          rms(c)
DAV:   1    -0.275091971768E+03    0.17574E+00   -0.40992E-02   568   0.743E+00    0.329E-01
DAV:   2    -0.275117445402E+03   -0.25474E-01   -0.20461E-01   424   0.124E+00    0.205E+00
DAV:   3    -0.275101719562E+03    0.15726E-01   -0.90239E-02   560   0.426E-01    0.537E-01
DAV:   4    -0.275102761330E+03   -0.10418E-02   -0.83833E-03   448   0.158E-01    0.154E-01
DAV:   5    -0.275102808219E+03   -0.46889E-04   -0.12563E-03   440   0.724E-02    0.119E-01
DAV:   6    -0.275102777335E+03    0.30884E-04   -0.38369E-04   408   0.364E-02    0.800E-02
DAV:   7    -0.275102760086E+03    0.17249E-04   -0.80971E-05   256   0.215E-02    0.448E-02
DAV:   8    -0.275102753328E+03    0.67580E-05   -0.31850E-05   296   0.204E-02
   29 T=  2187. E= -.26340459E+03 F= -.27510275E+03 E0= -.27505929E+03  EK= 0.17242E+02 SP= -.55E+01 SK= 0.57E-02
 bond charge predicted
 prediction of wavefunctions
       N       E                     dE             d eps       ncg     rms          rms(c)
DAV:   1    -0.274905848393E+03    0.19691E+00   -0.56117E-02   568   0.740E+00    0.318E-01
DAV:   2    -0.274929409932E+03   -0.23562E-01   -0.25408E-01   440   0.125E+00    0.172E+00
DAV:   3    -0.274917122672E+03    0.12287E-01   -0.11563E-01   568   0.400E-01    0.406E-01
DAV:   4    -0.274917950603E+03   -0.82793E-03   -0.51726E-03   464   0.141E-01    0.210E-01
DAV:   5    -0.274918008083E+03   -0.57480E-04   -0.20068E-03   424   0.818E-02    0.141E-01
DAV:   6    -0.274917953766E+03    0.54317E-04   -0.74673E-04   424   0.461E-02    0.834E-02
DAV:   7    -0.274917931116E+03    0.22650E-04   -0.12316E-04   344   0.274E-02    0.267E-02
DAV:   8    -0.274917935992E+03   -0.48758E-05   -0.29101E-05   224   0.145E-02
   30 T=  2155. E= -.26340118E+03 F= -.27491794E+03 E0= -.27487278E+03  EK= 0.16994E+02 SP= -.55E+01 SK= 0.23E-01
 bond charge predicted
 prediction of wavefunctions
       N       E                     dE             d eps       ncg     rms          rms(c)
DAV:   1    -0.274707203412E+03    0.21073E+00   -0.47908E-02   568   0.733E+00    0.159E-01
DAV:   2    -0.274721408731E+03   -0.14205E-01   -0.13232E-01   416   0.115E+00    0.785E-01
DAV:   3    -0.274719218560E+03    0.21902E-02   -0.14449E-02   600   0.216E-01    0.166E-01
DAV:   4    -0.274719547881E+03   -0.32932E-03   -0.21079E-03   480   0.775E-02    0.170E-01
DAV:   5    -0.274719435085E+03    0.11280E-03   -0.83832E-04   456   0.431E-02    0.581E-02
DAV:   6    -0.274719437093E+03   -0.20075E-05   -0.88225E-05   320   0.191E-02
   31 T=  2117. E= -.26339864E+03 F= -.27471944E+03 E0= -.27467234E+03  EK= 0.16689E+02 SP= -.54E+01 SK= 0.51E-01
 bond charge predicted
 prediction of wavefunctions
       N       E                     dE             d eps       ncg     rms          rms(c)
DAV:   1    -0.274511242791E+03    0.20819E+00   -0.30967E-02   624   0.726E+00    0.158E-01
DAV:   2    -0.274523594370E+03   -0.12352E-01   -0.11196E-01   400   0.111E+00    0.738E-01
DAV:   3    -0.274521724273E+03    0.18701E-02   -0.11961E-02   568   0.201E-01    0.267E-01
DAV:   4    -0.274521757373E+03   -0.33100E-04   -0.23945E-03   512   0.835E-02    0.122E-01
DAV:   5    -0.274521712218E+03    0.45154E-04   -0.25379E-04   432   0.347E-02    0.742E-02
DAV:   6    -0.274521697317E+03    0.14901E-04   -0.40880E-05   264   0.153E-02    0.685E-02
DAV:   7    -0.274521711163E+03   -0.13846E-04   -0.29370E-04   328   0.266E-02    0.114E-01
DAV:   8    -0.274521626525E+03    0.84638E-04   -0.33114E-04   408   0.438E-02    0.164E-02
DAV:   9    -0.274521633391E+03   -0.68657E-05   -0.41976E-05   408   0.195E-02
   32 T=  2073. E= -.26339701E+03 F= -.27452163E+03 E0= -.27447301E+03  EK= 0.16346E+02 SP= -.53E+01 SK= 0.86E-01
 bond charge predicted
 prediction of wavefunctions
       N       E                     dE             d eps       ncg     rms          rms(c)
DAV:   1    -0.274324222496E+03    0.19740E+00   -0.54006E-02   560   0.720E+00    0.205E-01
DAV:   2    -0.274336268508E+03   -0.12046E-01   -0.12687E-01   440   0.114E+00    0.279E-01
DAV:   3    -0.274337037968E+03   -0.76946E-03   -0.12806E-02   640   0.192E-01    0.468E-01
DAV:   4    -0.274336313245E+03    0.72472E-03   -0.53379E-03   568   0.105E-01    0.132E-01
DAV:   5    -0.274336337404E+03   -0.24158E-04   -0.37466E-04   416   0.487E-02    0.760E-02
DAV:   6    -0.274336351112E+03   -0.13708E-04   -0.43949E-04   368   0.307E-02    0.809E-02
DAV:   7    -0.274336338810E+03    0.12302E-04   -0.28893E-04   312   0.237E-02    0.438E-02
DAV:   8    -0.274336332742E+03    0.60683E-05   -0.44333E-05   240   0.158E-02
   33 T=  2027. E= -.26339702E+03 F= -.27433633E+03 E0= -.27428602E+03  EK= 0.15982E+02 SP= -.52E+01 SK= 0.13E+00
 bond charge predicted
 prediction of wavefunctions
       N       E                     dE             d eps       ncg     rms          rms(c)
DAV:   1    -0.274156264702E+03    0.18007E+00   -0.35523E-02   584   0.712E+00    0.141E-01
DAV:   2    -0.274167740359E+03   -0.11476E-01   -0.11031E-01   400   0.110E+00    0.502E-01
DAV:   3    -0.274167028791E+03    0.71157E-03   -0.80728E-03   584   0.174E-01    0.261E-01
DAV:   4    -0.274166929887E+03    0.98904E-04   -0.20066E-03   528   0.799E-02    0.103E-01
DAV:   5    -0.274166904619E+03    0.25269E-04   -0.32966E-04   424   0.361E-02    0.639E-02
DAV:   6    -0.274166897467E+03    0.71523E-05   -0.13232E-04   272   0.171E-02    0.561E-02
DAV:   7    -0.274166891188E+03    0.62788E-05   -0.63053E-05   248   0.126E-02
   34 T=  1980. E= -.26339487E+03 F= -.27416689E+03 E0= -.27411504E+03  EK= 0.15609E+02 SP= -.50E+01 SK= 0.17E+00
 bond charge predicted
 prediction of wavefunctions
       N       E                     dE             d eps       ncg     rms          rms(c)
DAV:   1    -0.274017606728E+03    0.14929E+00   -0.33217E-02   560   0.705E+00    0.112E-01
DAV:   2    -0.274028750640E+03   -0.11144E-01   -0.10851E-01   432   0.107E+00    0.504E-01
DAV:   3    -0.274028068970E+03    0.68167E-03   -0.76329E-03   600   0.147E-01    0.155E-01
DAV:   4    -0.274028137602E+03   -0.68632E-04   -0.63989E-04   504   0.597E-02    0.860E-02
DAV:   5    -0.274028115067E+03    0.22535E-04   -0.13452E-04   392   0.270E-02    0.657E-02
DAV:   6    -0.274028112253E+03    0.28137E-05   -0.18612E-04   248   0.169E-02    0.642E-02
DAV:   7    -0.274028104412E+03    0.78411E-05   -0.10121E-04   264   0.199E-02    0.465E-02
DAV:   8    -0.274028088304E+03    0.16108E-04   -0.53144E-05   320   0.243E-02    0.154E-02
DAV:   9    -0.274028088924E+03   -0.62054E-06   -0.18812E-05   240   0.149E-02
   35 T=  1933. E= -.26339324E+03 F= -.27402809E+03 E0= -.27397469E+03  EK= 0.15244E+02 SP= -.48E+01 SK= 0.21E+00
 bond charge predicted
 prediction of wavefunctions
       N       E                     dE             d eps       ncg     rms          rms(c)
DAV:   1    -0.273916702296E+03    0.11139E+00   -0.31628E-02   544   0.699E+00    0.165E-01
DAV:   2    -0.273926804484E+03   -0.10102E-01   -0.10433E-01   400   0.107E+00    0.347E-01
DAV:   3    -0.273926963387E+03   -0.15890E-03   -0.11581E-02   608   0.159E-01    0.398E-01
DAV:   4    -0.273926621041E+03    0.34235E-03   -0.47454E-03   528   0.962E-02    0.179E-01
DAV:   5    -0.273926609529E+03    0.11512E-04   -0.14604E-03   432   0.533E-02    0.147E-01
DAV:   6    -0.273926549735E+03    0.59794E-04   -0.57536E-04   368   0.356E-02    0.335E-02
DAV:   7    -0.273926559165E+03   -0.94296E-05   -0.42577E-05   272   0.188E-02
   36 T=  1889. E= -.26339192E+03 F= -.27392656E+03 E0= -.27387184E+03  EK= 0.14897E+02 SP= -.46E+01 SK= 0.25E+00
 bond charge predicted
 prediction of wavefunctions
       N       E                     dE             d eps       ncg     rms          rms(c)
DAV:   1    -0.273856250475E+03    0.70299E-01   -0.17489E-02   528   0.693E+00    0.978E-02
DAV:   2    -0.273864776718E+03   -0.85262E-02   -0.84972E-02   392   0.101E+00    0.414E-01
DAV:   3    -0.273864349150E+03    0.42757E-03   -0.61545E-03   592   0.113E-01    0.149E-01
DAV:   4    -0.273864385580E+03   -0.36429E-04   -0.87842E-04   512   0.519E-02    0.111E-01
DAV:   5    -0.273864358116E+03    0.27464E-04   -0.36930E-04   352   0.259E-02    0.698E-02
DAV:   6    -0.273864350491E+03    0.76245E-05   -0.93332E-05   248   0.174E-02
   37 T=  1849. E= -.26339118E+03 F= -.27386435E+03 E0= -.27380831E+03  EK= 0.14576E+02 SP= -.44E+01 SK= 0.29E+00
 bond charge predicted
 prediction of wavefunctions
       N       E                     dE             d eps       ncg     rms          rms(c)
DAV:   1    -0.273820209126E+03    0.44149E-01   -0.19449E-02   520   0.693E+00    0.113E-01
DAV:   2    -0.273829111787E+03   -0.89027E-02   -0.86645E-02   392   0.102E+00    0.364E-01
DAV:   3    -0.273828892084E+03    0.21970E-03   -0.76479E-03   608   0.134E-01    0.318E-01
DAV:   4    -0.273828668388E+03    0.22370E-03   -0.25127E-03   544   0.675E-02    0.943E-02
DAV:   5    -0.273828684120E+03   -0.15732E-04   -0.23057E-04   400   0.250E-02    0.861E-02
DAV:   6    -0.273828672735E+03    0.11384E-04   -0.73576E-05   224   0.136E-02    0.612E-02
DAV:   7    -0.273828673189E+03   -0.45413E-06   -0.43616E-05   280   0.210E-02
   38 T=  1809. E= -.26339215E+03 F= -.27382867E+03 E0= -.27377170E+03  EK= 0.14267E+02 SP= -.42E+01 SK= 0.32E+00
 bond charge predicted
 prediction of wavefunctions
       N       E                     dE             d eps       ncg     rms          rms(c)
DAV:   1    -0.273807733604E+03    0.20939E-01   -0.19056E-02   544   0.695E+00    0.170E-01
DAV:   2    -0.273816899101E+03   -0.91655E-02   -0.92402E-02   384   0.104E+00    0.421E-01
DAV:   3    -0.273816790248E+03    0.10885E-03   -0.17163E-02   584   0.176E-01    0.507E-01
DAV:   4    -0.273816135220E+03    0.65503E-03   -0.67398E-03   536   0.101E-01    0.137E-01
DAV:   5    -0.273816342434E+03   -0.20721E-03   -0.18247E-03   392   0.571E-02    0.238E-01
DAV:   6    -0.273816166678E+03    0.17576E-03   -0.85259E-04   432   0.417E-02    0.324E-02
DAV:   7    -0.273816197435E+03   -0.30756E-04   -0.46474E-05   296   0.202E-02    0.240E-02
DAV:   8    -0.273816198702E+03   -0.12670E-05   -0.11863E-05   224   0.114E-02
   39 T=  1771. E= -.26339998E+03 F= -.27381620E+03 E0= -.27375802E+03  EK= 0.13967E+02 SP= -.39E+01 SK= 0.35E+00
 bond charge predicted
 prediction of wavefunctions
       N       E                     dE             d eps       ncg     rms          rms(c)
DAV:   1    -0.273795359620E+03    0.20838E-01   -0.23472E-02   520   0.689E+00    0.114E-01
DAV:   2    -0.273804570116E+03   -0.92105E-02   -0.93567E-02   384   0.104E+00    0.191E-01
DAV:   3    -0.273804886220E+03   -0.31610E-03   -0.58373E-03   616   0.116E-01    0.345E-01
DAV:   4    -0.273804598053E+03    0.28817E-03   -0.30957E-03   496   0.640E-02    0.153E-01
DAV:   5    -0.273804584103E+03    0.13950E-04   -0.68757E-04   384   0.300E-02    0.572E-02
DAV:   6    -0.273804588328E+03   -0.42254E-05   -0.42207E-05   248   0.179E-02
   40 T=  1734. E= -.26339988E+03 F= -.27380459E+03 E0= -.27374538E+03  EK= 0.13671E+02 SP= -.36E+01 SK= 0.38E+00
 bond charge predicted
 prediction of wavefunctions
       N       E                     dE             d eps       ncg     rms          rms(c)
DAV:   1    -0.273786589693E+03    0.17994E-01   -0.30842E-02   552   0.685E+00    0.954E-02
DAV:   2    -0.273796865324E+03   -0.10276E-01   -0.10321E-01   400   0.104E+00    0.583E-01
DAV:   3    -0.273796081998E+03    0.78333E-03   -0.10567E-02   632   0.123E-01    0.125E-01
DAV:   4    -0.273796216714E+03   -0.13472E-03   -0.32017E-04   464   0.427E-02    0.641E-02
DAV:   5    -0.273796214278E+03    0.24362E-05   -0.11055E-04   296   0.197E-02    0.733E-02
DAV:   6    -0.273796209755E+03    0.45230E-05   -0.12425E-04   248   0.163E-02    0.666E-02
DAV:   7    -0.273796190405E+03    0.19350E-04   -0.68809E-05   408   0.286E-02    0.194E-02
DAV:   8    -0.273796191997E+03   -0.15922E-05   -0.29619E-05   272   0.175E-02
   41 T=  1696. E= -.26340285E+03 F= -.27379619E+03 E0= -.27373619E+03  EK= 0.13373E+02 SP= -.34E+01 SK= 0.40E+00
 bond charge predicted
 prediction of wavefunctions
       N       E                     dE             d eps       ncg     rms          rms(c)
DAV:   1    -0.273773538184E+03    0.22652E-01   -0.37818E-02   552   0.681E+00    0.154E-01
DAV:   2    -0.273784190172E+03   -0.10652E-01   -0.11021E-01   416   0.106E+00    0.521E-01
DAV:   3    -0.273783906875E+03    0.28330E-03   -0.16176E-02   632   0.147E-01    0.336E-01
DAV:   4    -0.273783791967E+03    0.11491E-03   -0.25559E-03   536   0.776E-02    0.117E-01
DAV:   5    -0.273783798040E+03   -0.60730E-05   -0.59059E-04   400   0.386E-02    0.116E-01
DAV:   6    -0.273783765510E+03    0.32530E-04   -0.27821E-04   336   0.269E-02    0.268E-02
DAV:   7    -0.273783773064E+03   -0.75535E-05   -0.18332E-05   224   0.132E-02
   42 T=  1658. E= -.26340513E+03 F= -.27378377E+03 E0= -.27372293E+03  EK= 0.13071E+02 SP= -.31E+01 SK= 0.41E+00
 bond charge predicted
 prediction of wavefunctions
       N       E                     dE             d eps       ncg     rms          rms(c)
DAV:   1    -0.273754369332E+03    0.29396E-01   -0.42048E-02   520   0.674E+00    0.106E-01
DAV:   2    -0.273765326504E+03   -0.10957E-01   -0.11059E-01   400   0.107E+00    0.432E-01
DAV:   3    -0.273765102295E+03    0.22421E-03   -0.98692E-03   632   0.126E-01    0.226E-01
DAV:   4    -0.273765079214E+03    0.23081E-04   -0.13734E-03   504   0.588E-02    0.103E-01
DAV:   5    -0.273765071444E+03    0.77695E-05   -0.36413E-04   344   0.269E-02    0.871E-02
DAV:   6    -0.273765055271E+03    0.16174E-04   -0.12471E-04   264   0.189E-02    0.424E-02
DAV:   7    -0.273765050228E+03    0.50423E-05   -0.29429E-05   280   0.211E-02
   43 T=  1619. E= -.26340576E+03 F= -.27376505E+03 E0= -.27370353E+03  EK= 0.12768E+02 SP= -.28E+01 SK= 0.42E+00
 bond charge predicted
 prediction of wavefunctions
       N       E                     dE             d eps       ncg     rms          rms(c)
DAV:   1    -0.273741582722E+03    0.23473E-01   -0.53935E-02   496   0.663E+00    0.127E-01
DAV:   2    -0.273753241085E+03   -0.11658E-01   -0.11714E-01   400   0.108E+00    0.571E-01
DAV:   3    -0.273752765911E+03    0.47517E-03   -0.16046E-02   608   0.151E-01    0.312E-01
DAV:   4    -0.273752772000E+03   -0.60889E-05   -0.32728E-03   560   0.830E-02    0.208E-01
DAV:   5    -0.273752686537E+03    0.85463E-04   -0.10950E-03   440   0.416E-02    0.918E-02
DAV:   6    -0.273752675973E+03    0.10565E-04   -0.16074E-04   288   0.261E-02    0.304E-02
DAV:   7    -0.273752674758E+03    0.12146E-05   -0.23855E-05   240   0.158E-02
   44 T=  1582. E= -.26340535E+03 F= -.27375267E+03 E0= -.27369041E+03  EK= 0.12478E+02 SP= -.25E+01 SK= 0.42E+00
 bond charge predicted
 prediction of wavefunctions
       N       E                     dE             d eps       ncg     rms          rms(c)
DAV:   1    -0.273739031070E+03    0.13645E-01   -0.55338E-02   464   0.654E+00    0.114E-01
DAV:   2    -0.273749884666E+03   -0.10854E-01   -0.10967E-01   408   0.106E+00    0.237E-01
DAV:   3    -0.273750220327E+03   -0.33566E-03   -0.85058E-03   608   0.134E-01    0.376E-01
DAV:   4    -0.273749947334E+03    0.27299E-03   -0.41920E-03   544   0.704E-02    0.189E-01
DAV:   5    -0.273749934535E+03    0.12799E-04   -0.11778E-03   392   0.375E-02    0.104E-01
DAV:   6    -0.273749919583E+03    0.14952E-04   -0.18677E-04   288   0.247E-02    0.331E-02
DAV:   7    -0.273749919838E+03   -0.25476E-06   -0.16909E-05   240   0.153E-02
   45 T=  1548. E= -.26340564E+03 F= -.27374992E+03 E0= -.27368701E+03  EK= 0.12203E+02 SP= -.23E+01 SK= 0.41E+00
 bond charge predicted
 prediction of wavefunctions
       N       E                     dE             d eps       ncg     rms          rms(c)
DAV:   1    -0.273742738362E+03    0.71812E-02   -0.72910E-02   480   0.647E+00    0.119E-01
DAV:   2    -0.273754205396E+03   -0.11467E-01   -0.11563E-01   408   0.107E+00    0.291E-01
DAV:   3    -0.273754549007E+03   -0.34361E-03   -0.10661E-02   608   0.141E-01    0.389E-01
DAV:   4    -0.273754309410E+03    0.23960E-03   -0.45428E-03   544   0.750E-02    0.219E-01
DAV:   5    -0.273754247674E+03    0.61736E-04   -0.10347E-03   400   0.388E-02    0.748E-02
DAV:   6    -0.273754253600E+03   -0.59251E-05   -0.11612E-04   320   0.240E-02    0.278E-02
DAV:   7    -0.273754255418E+03   -0.18187E-05   -0.15452E-05   232   0.127E-02
   46 T=  1515. E= -.26340760E+03 F= -.27375426E+03 E0= -.27369077E+03  EK= 0.11943E+02 SP= -.20E+01 SK= 0.40E+00
 bond charge predicted
 prediction of wavefunctions
       N       E                     dE             d eps       ncg     rms          rms(c)
DAV:   1    -0.273748729645E+03    0.55240E-02   -0.79267E-02   480   0.644E+00    0.102E-01
DAV:   2    -0.273759867172E+03   -0.11138E-01   -0.11232E-01   424   0.105E+00    0.199E-01
DAV:   3    -0.273760172882E+03   -0.30571E-03   -0.57368E-03   616   0.132E-01    0.290E-01
DAV:   4    -0.273759964542E+03    0.20834E-03   -0.12657E-03   536   0.586E-02    0.634E-02
DAV:   5    -0.273759998003E+03   -0.33461E-04   -0.28370E-04   352   0.264E-02    0.898E-02
DAV:   6    -0.273759983372E+03    0.14630E-04   -0.18982E-04   240   0.134E-02    0.383E-02
DAV:   7    -0.273759984240E+03   -0.86720E-06   -0.17232E-05   248   0.138E-02
   47 T=  1483. E= -.26340984E+03 F= -.27375998E+03 E0= -.27369596E+03  EK= 0.11694E+02 SP= -.17E+01 SK= 0.38E+00
 bond charge predicted
 prediction of wavefunctions
       N       E                     dE             d eps       ncg     rms          rms(c)
DAV:   1    -0.273748443818E+03    0.11540E-01   -0.64196E-02   528   0.636E+00    0.114E-01
DAV:   2    -0.273758517228E+03   -0.10073E-01   -0.10187E-01   400   0.101E+00    0.210E-01
DAV:   3    -0.273758956957E+03   -0.43973E-03   -0.78019E-03   616   0.126E-01    0.421E-01
DAV:   4    -0.273758692063E+03    0.26489E-03   -0.53506E-03   528   0.692E-02    0.262E-01
DAV:   5    -0.273758592304E+03    0.99759E-04   -0.13784E-03   432   0.382E-02    0.478E-02
DAV:   6    -0.273758618868E+03   -0.26565E-04   -0.69947E-05   304   0.209E-02    0.248E-02
DAV:   7    -0.273758619842E+03   -0.97391E-06   -0.16145E-05   224   0.116E-02
   48 T=  1452. E= -.26341119E+03 F= -.27375862E+03 E0= -.27369411E+03  EK= 0.11450E+02 SP= -.15E+01 SK= 0.36E+00
 bond charge predicted
 prediction of wavefunctions
       N       E                     dE             d eps       ncg     rms          rms(c)
DAV:   1    -0.273740472334E+03    0.18147E-01   -0.63781E-02   528   0.626E+00    0.107E-01
DAV:   2    -0.273750879199E+03   -0.10407E-01   -0.10394E-01   400   0.987E-01    0.602E-01
DAV:   3    -0.273750280174E+03    0.59903E-03   -0.11503E-02   600   0.132E-01    0.234E-01
DAV:   4    -0.273750513634E+03   -0.23346E-03   -0.36671E-03   464   0.672E-02    0.291E-01
DAV:   5    -0.273750300413E+03    0.21322E-03   -0.14444E-03   432   0.431E-02    0.547E-02
DAV:   6    -0.273750328771E+03   -0.28357E-04   -0.82225E-05   304   0.225E-02    0.368E-02
DAV:   7    -0.273750327411E+03    0.13596E-05   -0.17507E-05   240   0.160E-02
   49 T=  1422. E= -.26341176E+03 F= -.27375033E+03 E0= -.27368531E+03  EK= 0.11212E+02 SP= -.12E+01 SK= 0.34E+00
 bond charge predicted
 prediction of wavefunctions
       N       E                     dE             d eps       ncg     rms          rms(c)
DAV:   1    -0.273726341720E+03    0.23987E-01   -0.50260E-02   520   0.618E+00    0.100E-01
DAV:   2    -0.273735777419E+03   -0.94357E-02   -0.94757E-02   392   0.954E-01    0.336E-01
DAV:   3    -0.273735870625E+03   -0.93206E-04   -0.80806E-03   608   0.117E-01    0.329E-01
DAV:   4    -0.273735805126E+03    0.65500E-04   -0.37300E-03   520   0.645E-02    0.245E-01
DAV:   5    -0.273735686298E+03    0.11883E-03   -0.12249E-03   424   0.370E-02    0.604E-02
DAV:   6    -0.273735701060E+03   -0.14762E-04   -0.10835E-04   312   0.213E-02    0.308E-02
DAV:   7    -0.273735701710E+03   -0.65007E-06   -0.22849E-05   232   0.139E-02
   50 T=  1393. E= -.26341098E+03 F= -.27373570E+03 E0= -.27367005E+03  EK= 0.10984E+02 SP= -.97E+00 SK= 0.31E+00
Information: wavefunction orthogonal band  192  0.8958
 bond charge predicted
 prediction of wavefunctions
       N       E                     dE             d eps       ncg     rms          rms(c)
DAV:   1    -0.273709491829E+03    0.26209E-01   -0.36419E-02   520   0.611E+00    0.965E-02
DAV:   2    -0.273718281764E+03   -0.87899E-02   -0.88474E-02   400   0.943E-01    0.583E-01
DAV:   3    -0.273717694043E+03    0.58772E-03   -0.97193E-03   624   0.112E-01    0.211E-01
DAV:   4    -0.273717908766E+03   -0.21472E-03   -0.31342E-03   456   0.604E-02    0.266E-01
DAV:   5    -0.273717732411E+03    0.17635E-03   -0.12035E-03   408   0.406E-02    0.544E-02
DAV:   6    -0.273717752927E+03   -0.20516E-04   -0.88356E-05   272   0.220E-02    0.321E-02
DAV:   7    -0.273717751485E+03    0.14426E-05   -0.15434E-05   232   0.137E-02
   51 T=  1365. E= -.26341141E+03 F= -.27371775E+03 E0= -.27365124E+03  EK= 0.10765E+02 SP= -.73E+00 SK= 0.27E+00
 bond charge predicted
 prediction of wavefunctions
       N       E                     dE             d eps       ncg     rms          rms(c)
DAV:   1    -0.273691456233E+03    0.26297E-01   -0.34111E-02   568   0.605E+00    0.111E-01
DAV:   2    -0.273700006403E+03   -0.85502E-02   -0.85768E-02   392   0.915E-01    0.703E-01
DAV:   3    -0.273699127096E+03    0.87931E-03   -0.13461E-02   616   0.123E-01    0.248E-01
DAV:   4    -0.273699425375E+03   -0.29828E-03   -0.34333E-03   480   0.701E-02    0.297E-01
DAV:   5    -0.273699210347E+03    0.21503E-03   -0.18211E-03   400   0.459E-02    0.730E-02
DAV:   6    -0.273699227807E+03   -0.17460E-04   -0.20314E-04   328   0.268E-02    0.264E-02
DAV:   7    -0.273699230113E+03   -0.23067E-05   -0.15700E-05   224   0.129E-02
   52 T=  1339. E= -.26341234E+03 F= -.27369923E+03 E0= -.27363173E+03  EK= 0.10561E+02 SP= -.51E+00 SK= 0.24E+00
 bond charge predicted
 prediction of wavefunctions
       N       E                     dE             d eps       ncg     rms          rms(c)
DAV:   1    -0.273684426009E+03    0.14802E-01   -0.28519E-02   584   0.597E+00    0.876E-02
DAV:   2    -0.273691376692E+03   -0.69507E-02   -0.69618E-02   400   0.874E-01    0.436E-01
DAV:   3    -0.273691131790E+03    0.24490E-03   -0.69837E-03   600   0.945E-02    0.251E-01
DAV:   4    -0.273691209504E+03   -0.77714E-04   -0.27590E-03   448   0.551E-02    0.239E-01
DAV:   5    -0.273691073706E+03    0.13580E-03   -0.11660E-03   400   0.367E-02    0.593E-02
DAV:   6    -0.273691085740E+03   -0.12034E-04   -0.11103E-04   248   0.201E-02    0.347E-02
DAV:   7    -0.273691084427E+03    0.13132E-05   -0.22576E-05   240   0.158E-02
   53 T=  1317. E= -.26341191E+03 F= -.27369108E+03 E0= -.27362243E+03  EK= 0.10384E+02 SP= -.31E+00 SK= 0.21E+00
 bond charge predicted
 prediction of wavefunctions
       N       E                     dE             d eps       ncg     rms          rms(c)
DAV:   1    -0.273696255421E+03   -0.51697E-02   -0.21630E-02   560   0.591E+00    0.964E-02
DAV:   2    -0.273703017897E+03   -0.67625E-02   -0.67663E-02   400   0.845E-01    0.720E-01
DAV:   3    -0.273702067183E+03    0.95071E-03   -0.12121E-02   592   0.106E-01    0.218E-01
DAV:   4    -0.273702309122E+03   -0.24194E-03   -0.22187E-03   448   0.609E-02    0.221E-01
DAV:   5    -0.273702198896E+03    0.11023E-03   -0.12287E-03   400   0.383E-02    0.833E-02
DAV:   6    -0.273702193309E+03    0.55873E-05   -0.22350E-04   280   0.239E-02    0.279E-02
DAV:   7    -0.273702195851E+03   -0.25422E-05   -0.15698E-05   232   0.129E-02
   54 T=  1299. E= -.26341173E+03 F= -.27370220E+03 E0= -.27363226E+03  EK= 0.10242E+02 SP= -.12E+00 SK= 0.17E+00
 bond charge predicted
 prediction of wavefunctions
       N       E                     dE             d eps       ncg     rms          rms(c)
DAV:   1    -0.273723799610E+03   -0.21606E-01   -0.18264E-02   520   0.587E+00    0.903E-02
DAV:   2    -0.273729713035E+03   -0.59134E-02   -0.59625E-02   384   0.836E-01    0.267E-01
DAV:   3    -0.273729724976E+03   -0.11940E-04   -0.45273E-03   600   0.906E-02    0.290E-01
DAV:   4    -0.273729751707E+03   -0.26731E-04   -0.38732E-03   440   0.549E-02    0.295E-01
DAV:   5    -0.273729591433E+03    0.16027E-03   -0.19919E-03   376   0.402E-02    0.893E-02
DAV:   6    -0.273729596762E+03   -0.53294E-05   -0.24638E-04   304   0.244E-02    0.295E-02
DAV:   7    -0.273729599835E+03   -0.30722E-05   -0.18461E-05   216   0.134E-02
   55 T=  1285. E= -.26341215E+03 F= -.27372960E+03 E0= -.27365840E+03  EK= 0.10132E+02 SP= 0.46E-01 SK= 0.14E+00
 bond charge predicted
 prediction of wavefunctions
       N       E                     dE             d eps       ncg     rms          rms(c)
DAV:   1    -0.273768529449E+03   -0.38933E-01   -0.15819E-02   504   0.583E+00    0.826E-02
DAV:   2    -0.273774171573E+03   -0.56421E-02   -0.56669E-02   400   0.817E-01    0.225E-01
DAV:   3    -0.273774177530E+03   -0.59576E-05   -0.31592E-03   616   0.820E-02    0.221E-01
DAV:   4    -0.273774243257E+03   -0.65727E-04   -0.28293E-03   432   0.471E-02    0.294E-01
DAV:   5    -0.273774078863E+03    0.16439E-03   -0.16883E-03   352   0.342E-02    0.695E-02
DAV:   6    -0.273774096967E+03   -0.18104E-04   -0.15278E-04   256   0.198E-02    0.332E-02
DAV:   7    -0.273774097334E+03   -0.36684E-06   -0.19908E-05   232   0.128E-02
   56 T=  1275. E= -.26341225E+03 F= -.27377410E+03 E0= -.27370164E+03  EK= 0.10055E+02 SP= 0.20E+00 SK= 0.11E+00
 bond charge predicted
 prediction of wavefunctions
       N       E                     dE             d eps       ncg     rms          rms(c)
DAV:   1    -0.273835888626E+03   -0.61792E-01   -0.14567E-02   536   0.580E+00    0.858E-02
DAV:   2    -0.273841077376E+03   -0.51887E-02   -0.52728E-02   384   0.791E-01    0.175E-01
DAV:   3    -0.273841327972E+03   -0.25060E-03   -0.53542E-03   624   0.846E-02    0.388E-01
DAV:   4    -0.273841142107E+03    0.18587E-03   -0.41765E-03   448   0.524E-02    0.258E-01
DAV:   5    -0.273841036497E+03    0.10561E-03   -0.10509E-03   352   0.346E-02    0.362E-02
DAV:   6    -0.273841062868E+03   -0.26371E-04   -0.29973E-05   256   0.172E-02    0.251E-02
DAV:   7    -0.273841063186E+03   -0.31777E-06   -0.19527E-05   224   0.117E-02
   57 T=  1270. E= -.26341349E+03 F= -.27384106E+03 E0= -.27376736E+03  EK= 0.10014E+02 SP= 0.33E+00 SK= 0.82E-01
 bond charge predicted
 prediction of wavefunctions
       N       E                     dE             d eps       ncg     rms          rms(c)
DAV:   1    -0.273922825678E+03   -0.81763E-01   -0.12102E-02   544   0.577E+00    0.829E-02
DAV:   2    -0.273927685739E+03   -0.48601E-02   -0.48894E-02   392   0.764E-01    0.195E-01
DAV:   3    -0.273927733761E+03   -0.48022E-04   -0.29342E-03   600   0.840E-02    0.260E-01
DAV:   4    -0.273927734863E+03   -0.11014E-05   -0.30352E-03   440   0.457E-02    0.266E-01
DAV:   5    -0.273927619930E+03    0.11493E-03   -0.14517E-03   344   0.350E-02    0.964E-02
DAV:   6    -0.273927614934E+03    0.49959E-05   -0.22824E-04   264   0.205E-02    0.342E-02
DAV:   7    -0.273927616276E+03   -0.13418E-05   -0.18023E-05   216   0.133E-02
   58 T=  1269. E= -.26341525E+03 F= -.27392762E+03 E0= -.27385273E+03  EK= 0.10009E+02 SP= 0.44E+00 SK= 0.59E-01
 bond charge predicted
 prediction of wavefunctions
       N       E                     dE             d eps       ncg     rms          rms(c)
DAV:   1    -0.274026618497E+03   -0.99004E-01   -0.12141E-02   600   0.575E+00    0.868E-02
DAV:   2    -0.274031414149E+03   -0.47957E-02   -0.48077E-02   384   0.740E-01    0.424E-01
DAV:   3    -0.274031250944E+03    0.16321E-03   -0.90336E-03   592   0.954E-02    0.421E-01
DAV:   4    -0.274031017175E+03    0.23377E-03   -0.34591E-03   464   0.573E-02    0.961E-02
DAV:   5    -0.274031038747E+03   -0.21572E-04   -0.21760E-04   384   0.304E-02    0.338E-02
DAV:   6    -0.274031039717E+03   -0.96971E-06   -0.34493E-05   216   0.149E-02
   59 T=  1273. E= -.26341552E+03 F= -.27403104E+03 E0= -.27395505E+03  EK= 0.10036E+02 SP= 0.54E+00 SK= 0.39E-01
 bond charge predicted
 prediction of wavefunctions
       N       E                     dE             d eps       ncg     rms          rms(c)
DAV:   1    -0.274151618508E+03   -0.12058E+00   -0.10982E-02   592   0.574E+00    0.142E-01
DAV:   2    -0.274159054740E+03   -0.74362E-02   -0.61424E-02   384   0.759E-01    0.101E+00
DAV:   3    -0.274156157399E+03    0.28973E-02   -0.25069E-02   568   0.186E-01    0.695E-01
DAV:   4    -0.274155729470E+03    0.42793E-03   -0.85310E-03   424   0.808E-02    0.147E-01
DAV:   5    -0.274155866740E+03   -0.13727E-03   -0.48692E-04   392   0.492E-02    0.536E-02
DAV:   6    -0.274155860011E+03    0.67287E-05   -0.62672E-05   320   0.192E-02
   60 T=  1281. E= -.26341668E+03 F= -.27415586E+03 E0= -.27407863E+03  EK= 0.10099E+02 SP= 0.62E+00 SK= 0.24E-01
 bond charge predicted
 prediction of wavefunctions
       N       E                     dE             d eps       ncg     rms          rms(c)
DAV:   1    -0.274298301948E+03   -0.14244E+00   -0.11479E-02   576   0.574E+00    0.192E-01
DAV:   2    -0.274308707817E+03   -0.10406E-01   -0.80945E-02   384   0.772E-01    0.163E+00
DAV:   3    -0.274301322138E+03    0.73857E-02   -0.52521E-02   520   0.249E-01    0.463E-01
DAV:   4    -0.274302432183E+03   -0.11100E-02   -0.95742E-03   408   0.999E-02    0.466E-01
DAV:   5    -0.274302149299E+03    0.28288E-03   -0.36707E-03   408   0.606E-02    0.101E-01
DAV:   6    -0.274302185359E+03   -0.36060E-04   -0.32588E-04   392   0.333E-02    0.560E-02
DAV:   7    -0.274302178203E+03    0.71561E-05   -0.47748E-05   248   0.167E-02
   61 T=  1294. E= -.26341595E+03 F= -.27430218E+03 E0= -.27422380E+03  EK= 0.10200E+02 SP= 0.67E+00 SK= 0.13E-01
 bond charge predicted
 prediction of wavefunctions
       N       E                     dE             d eps       ncg     rms          rms(c)
DAV:   1    -0.274467508743E+03   -0.16532E+00   -0.98797E-03   600   0.577E+00    0.153E-01
DAV:   2    -0.274474419987E+03   -0.69112E-02   -0.65872E-02   384   0.729E-01    0.121E+00
DAV:   3    -0.274471595275E+03    0.28247E-02   -0.42924E-02   552   0.176E-01    0.696E-01
DAV:   4    -0.274471246935E+03    0.34834E-03   -0.91507E-03   448   0.115E-01    0.250E-01
DAV:   5    -0.274471299547E+03   -0.52612E-04   -0.16929E-03   416   0.738E-02    0.127E-01
DAV:   6    -0.274471266714E+03    0.32834E-04   -0.67471E-04   400   0.429E-02    0.760E-02
DAV:   7    -0.274471248001E+03    0.18712E-04   -0.22199E-04   320   0.257E-02    0.226E-02
DAV:   8    -0.274471249976E+03   -0.19747E-05   -0.29771E-05   224   0.139E-02
   62 T=  1311. E= -.26341564E+03 F= -.27447125E+03 E0= -.27439166E+03  EK= 0.10337E+02 SP= 0.71E+00 SK= 0.53E-02
 bond charge predicted
 prediction of wavefunctions
       N       E                     dE             d eps       ncg     rms          rms(c)
DAV:   1    -0.274652517696E+03   -0.18127E+00   -0.11538E-02   640   0.579E+00    0.116E-01
DAV:   2    -0.274657092066E+03   -0.45744E-02   -0.44022E-02   384   0.714E-01    0.509E-01
DAV:   3    -0.274656679779E+03    0.41229E-03   -0.95233E-03   576   0.126E-01    0.481E-01
DAV:   4    -0.274656555040E+03    0.12474E-03   -0.68979E-03   488   0.712E-02    0.292E-01
DAV:   5    -0.274656421728E+03    0.13331E-03   -0.17144E-03   416   0.556E-02    0.996E-02
DAV:   6    -0.274656413771E+03    0.79566E-05   -0.31759E-04   352   0.284E-02    0.423E-02
DAV:   7    -0.274656409949E+03    0.38227E-05   -0.40462E-05   232   0.157E-02
   63 T=  1332. E= -.26341464E+03 F= -.27465641E+03 E0= -.27457564E+03  EK= 0.10504E+02 SP= 0.74E+00 SK= 0.13E-02
 bond charge predicted
 prediction of wavefunctions
       N       E                     dE             d eps       ncg     rms          rms(c)
DAV:   1    -0.274856274659E+03   -0.19986E+00   -0.10791E-02   632   0.583E+00    0.776E-02
DAV:   2    -0.274860610419E+03   -0.43358E-02   -0.42900E-02   384   0.690E-01    0.591E-01
DAV:   3    -0.274859998252E+03    0.61217E-03   -0.81264E-03   584   0.880E-02    0.219E-01
DAV:   4    -0.274860037787E+03   -0.39535E-04   -0.15477E-03   440   0.536E-02    0.105E-01
DAV:   5    -0.274860014388E+03    0.23399E-04   -0.21518E-04   368   0.297E-02    0.683E-02
DAV:   6    -0.274860000272E+03    0.14116E-04   -0.80665E-05   232   0.170E-02    0.362E-02
DAV:   7    -0.274859996666E+03    0.36066E-05   -0.41273E-05   224   0.137E-02
   64 T=  1357. E= -.26341678E+03 F= -.27486000E+03 E0= -.27477808E+03  EK= 0.10699E+02 SP= 0.74E+00 SK= 0.13E-05
 bond charge predicted
 prediction of wavefunctions
       N       E                     dE             d eps       ncg     rms          rms(c)
DAV:   1    -0.275070402411E+03   -0.21040E+00   -0.10629E-02   608   0.590E+00    0.111E-01
DAV:   2    -0.275074920521E+03   -0.45181E-02   -0.45544E-02   384   0.713E-01    0.504E-01
DAV:   3    -0.275074593898E+03    0.32662E-03   -0.13216E-02   584   0.126E-01    0.539E-01
DAV:   4    -0.275074251973E+03    0.34193E-03   -0.61092E-03   432   0.730E-02    0.186E-01
DAV:   5    -0.275074241543E+03    0.10430E-04   -0.91931E-04   408   0.500E-02    0.831E-02
DAV:   6    -0.275074227224E+03    0.14319E-04   -0.13521E-04   304   0.238E-02    0.398E-02
DAV:   7    -0.275074222943E+03    0.42805E-05   -0.30819E-05   224   0.144E-02
   65 T=  1385. E= -.26341696E+03 F= -.27507422E+03 E0= -.27499125E+03  EK= 0.10918E+02 SP= 0.74E+00 SK= 0.87E-03
 bond charge predicted
 prediction of wavefunctions
       N       E                     dE             d eps       ncg     rms          rms(c)
DAV:   1    -0.275292808141E+03   -0.21858E+00   -0.12252E-02   640   0.597E+00    0.140E-01
DAV:   2    -0.275299192728E+03   -0.63846E-02   -0.58140E-02   384   0.749E-01    0.996E-01
DAV:   3    -0.275297513618E+03    0.16791E-02   -0.31844E-02   560   0.175E-01    0.729E-01
DAV:   4    -0.275296753590E+03    0.76003E-03   -0.11250E-02   464   0.116E-01    0.156E-01
DAV:   5    -0.275296839783E+03   -0.86193E-04   -0.69477E-04   408   0.603E-02    0.612E-02
DAV:   6    -0.275296837696E+03    0.20865E-05   -0.13883E-04   328   0.235E-02    0.556E-02
DAV:   7    -0.275296826695E+03    0.11002E-04   -0.60743E-05   224   0.148E-02    0.261E-02
DAV:   8    -0.275296826772E+03   -0.76772E-07   -0.37877E-05   232   0.147E-02
   66 T=  1415. E= -.26341715E+03 F= -.27529683E+03 E0= -.27521297E+03  EK= 0.11156E+02 SP= 0.72E+00 SK= 0.32E-02
 bond charge predicted
 prediction of wavefunctions
       N       E                     dE             d eps       ncg     rms          rms(c)
DAV:   1    -0.275518269802E+03   -0.22144E+00   -0.10665E-02   608   0.604E+00    0.117E-01
DAV:   2    -0.275523450213E+03   -0.51804E-02   -0.50997E-02   384   0.747E-01    0.519E-01
DAV:   3    -0.275522784312E+03    0.66590E-03   -0.12186E-02   568   0.142E-01    0.431E-01
DAV:   4    -0.275522623990E+03    0.16032E-03   -0.52882E-03   456   0.685E-02    0.222E-01
DAV:   5    -0.275522566929E+03    0.57060E-04   -0.13770E-03   408   0.524E-02    0.922E-02
DAV:   6    -0.275522547765E+03    0.19165E-04   -0.24863E-04   344   0.278E-02    0.461E-02
DAV:   7    -0.275522542944E+03    0.48209E-05   -0.56377E-05   232   0.172E-02
   67 T=  1447. E= -.26341606E+03 F= -.27552254E+03 E0= -.27543791E+03  EK= 0.11409E+02 SP= 0.69E+00 SK= 0.62E-02
 bond charge predicted
 prediction of wavefunctions
       N       E                     dE             d eps       ncg     rms          rms(c)
DAV:   1    -0.275739916851E+03   -0.21737E+00   -0.10921E-02   600   0.612E+00    0.995E-02
DAV:   2    -0.275744702400E+03   -0.47855E-02   -0.48573E-02   384   0.746E-01    0.430E-01
DAV:   3    -0.275744628785E+03    0.73615E-04   -0.97480E-03   576   0.111E-01    0.460E-01
DAV:   4    -0.275744295572E+03    0.33321E-03   -0.46431E-03   472   0.759E-02    0.136E-01
DAV:   5    -0.275744299094E+03   -0.35216E-05   -0.59750E-04   416   0.412E-02    0.721E-02
DAV:   6    -0.275744283343E+03    0.15751E-04   -0.95221E-05   280   0.208E-02    0.346E-02
DAV:   7    -0.275744281249E+03    0.20940E-05   -0.33242E-05   216   0.123E-02
   68 T=  1480. E= -.26341432E+03 F= -.27574428E+03 E0= -.27565908E+03  EK= 0.11668E+02 SP= 0.65E+00 SK= 0.94E-02
 bond charge predicted
 prediction of wavefunctions
       N       E                     dE             d eps       ncg     rms          rms(c)
DAV:   1    -0.275952265190E+03   -0.20798E+00   -0.12188E-02   608   0.620E+00    0.104E-01
DAV:   2    -0.275957506214E+03   -0.52410E-02   -0.51644E-02   384   0.759E-01    0.420E-01
DAV:   3    -0.275957074743E+03    0.43147E-03   -0.88864E-03   576   0.131E-01    0.367E-01
DAV:   4    -0.275956889963E+03    0.18478E-03   -0.33991E-03   496   0.605E-02    0.160E-01
DAV:   5    -0.275956879268E+03    0.10695E-04   -0.54353E-04   384   0.386E-02    0.812E-02
DAV:   6    -0.275956858214E+03    0.21055E-04   -0.96865E-05   272   0.204E-02    0.356E-02
DAV:   7    -0.275956855468E+03    0.27458E-05   -0.14995E-05   216   0.121E-02
   69 T=  1512. E= -.26341163E+03 F= -.27595686E+03 E0= -.27587144E+03  EK= 0.11925E+02 SP= 0.61E+00 SK= 0.12E-01
 bond charge predicted
 prediction of wavefunctions
       N       E                     dE             d eps       ncg     rms          rms(c)
DAV:   1    -0.276158934897E+03   -0.20208E+00   -0.12549E-02   608   0.628E+00    0.140E-01
DAV:   2    -0.276164935332E+03   -0.60004E-02   -0.61611E-02   384   0.781E-01    0.566E-01
DAV:   3    -0.276163810097E+03    0.11252E-02   -0.18297E-02   568   0.181E-01    0.405E-01
DAV:   4    -0.276163677569E+03    0.13253E-03   -0.52552E-03   488   0.743E-02    0.247E-01
DAV:   5    -0.276163575963E+03    0.10161E-03   -0.11210E-03   408   0.548E-02    0.600E-02
DAV:   6    -0.276163580474E+03   -0.45112E-05   -0.13269E-04   344   0.255E-02    0.491E-02
DAV:   7    -0.276163572346E+03    0.81275E-05   -0.55266E-05   216   0.145E-02
   70 T=  1544. E= -.26341510E+03 F= -.27616357E+03 E0= -.27607819E+03  EK= 0.12176E+02 SP= 0.56E+00 SK= 0.14E-01
 bond charge predicted
 prediction of wavefunctions
       N       E                     dE             d eps       ncg     rms          rms(c)
DAV:   1    -0.276346949003E+03   -0.18337E+00   -0.14216E-02   616   0.637E+00    0.139E-01
DAV:   2    -0.276353918710E+03   -0.69697E-02   -0.68418E-02   384   0.791E-01    0.769E-01
DAV:   3    -0.276352058468E+03    0.18602E-02   -0.21771E-02   592   0.195E-01    0.434E-01
DAV:   4    -0.276351869713E+03    0.18876E-03   -0.60297E-03   496   0.859E-02    0.216E-01
DAV:   5    -0.276351839225E+03    0.30488E-04   -0.94352E-04   440   0.545E-02    0.117E-01
DAV:   6    -0.276351799831E+03    0.39394E-04   -0.25333E-04   392   0.313E-02    0.396E-02
DAV:   7    -0.276351798400E+03    0.14306E-05   -0.61542E-05   224   0.171E-02
   71 T=  1575. E= -.26341554E+03 F= -.27635180E+03 E0= -.27626685E+03  EK= 0.12415E+02 SP= 0.51E+00 SK= 0.16E-01
 bond charge predicted
 prediction of wavefunctions
       N       E                     dE             d eps       ncg     rms          rms(c)
DAV:   1    -0.276515593336E+03   -0.16379E+00   -0.14152E-02   592   0.647E+00    0.106E-01
DAV:   2    -0.276521144353E+03   -0.55510E-02   -0.55007E-02   400   0.780E-01    0.474E-01
DAV:   3    -0.276520858839E+03    0.28551E-03   -0.90483E-03   560   0.119E-01    0.345E-01
DAV:   4    -0.276520682590E+03    0.17625E-03   -0.27406E-03   480   0.790E-02    0.115E-01
DAV:   5    -0.276520664944E+03    0.17647E-04   -0.46778E-04   416   0.380E-02    0.615E-02
DAV:   6    -0.276520654007E+03    0.10936E-04   -0.13284E-04   272   0.215E-02    0.368E-02
DAV:   7    -0.276520650193E+03    0.38144E-05   -0.36704E-05   216   0.132E-02
   72 T=  1602. E= -.26341826E+03 F= -.27652065E+03 E0= -.27643652E+03  EK= 0.12635E+02 SP= 0.45E+00 SK= 0.16E-01
 bond charge predicted
 prediction of wavefunctions
       N       E                     dE             d eps       ncg     rms          rms(c)
DAV:   1    -0.276647267498E+03   -0.12661E+00   -0.12755E-02   568   0.655E+00    0.148E-01
DAV:   2    -0.276654631054E+03   -0.73636E-02   -0.68827E-02   392   0.813E-01    0.839E-01
DAV:   3    -0.276653039630E+03    0.15914E-02   -0.22299E-02   584   0.188E-01    0.556E-01
DAV:   4    -0.276652468975E+03    0.57065E-03   -0.81631E-03   472   0.110E-01    0.955E-02
DAV:   5    -0.276652524167E+03   -0.55192E-04   -0.63046E-04   432   0.510E-02    0.528E-02
DAV:   6    -0.276652510837E+03    0.13330E-04   -0.14977E-04   304   0.247E-02    0.311E-02
DAV:   7    -0.276652510497E+03    0.34019E-06   -0.45722E-05   224   0.137E-02
   73 T=  1626. E= -.26341857E+03 F= -.27665251E+03 E0= -.27656922E+03  EK= 0.12821E+02 SP= 0.40E+00 SK= 0.15E-01
 bond charge predicted
 prediction of wavefunctions
       N       E                     dE             d eps       ncg     rms          rms(c)
DAV:   1    -0.276737772992E+03   -0.85262E-01   -0.19528E-02   608   0.663E+00    0.149E-01
DAV:   2    -0.276746811954E+03   -0.90390E-02   -0.85683E-02   400   0.853E-01    0.104E+00
DAV:   3    -0.276743594882E+03    0.32171E-02   -0.30340E-02   576   0.219E-01    0.462E-01
DAV:   4    -0.276743451888E+03    0.14299E-03   -0.32617E-03   488   0.103E-01    0.146E-01
DAV:   5    -0.276743468137E+03   -0.16249E-04   -0.86895E-04   432   0.554E-02    0.949E-02
DAV:   6    -0.276743433651E+03    0.34486E-04   -0.35129E-04   360   0.298E-02    0.376E-02
DAV:   7    -0.276743428760E+03    0.48905E-05   -0.33726E-05   224   0.153E-02
   74 T=  1644. E= -.26342076E+03 F= -.27674343E+03 E0= -.27666140E+03  EK= 0.12964E+02 SP= 0.34E+00 SK= 0.14E-01
 bond charge predicted
 prediction of wavefunctions
       N       E                     dE             d eps       ncg     rms          rms(c)
DAV:   1    -0.276784334569E+03   -0.40901E-01   -0.12896E-02   632   0.669E+00    0.131E-01
DAV:   2    -0.276791443193E+03   -0.71086E-02   -0.60541E-02   400   0.809E-01    0.932E-01
DAV:   3    -0.276789268356E+03    0.21748E-02   -0.17110E-02   568   0.171E-01    0.326E-01
DAV:   4    -0.276789256210E+03    0.12146E-04   -0.33498E-03   432   0.926E-02    0.107E-01
DAV:   5    -0.276789259324E+03   -0.31138E-05   -0.54602E-04   416   0.449E-02    0.860E-02
DAV:   6    -0.276789234624E+03    0.24701E-04   -0.26413E-04   280   0.259E-02    0.406E-02
DAV:   7    -0.276789228926E+03    0.56980E-05   -0.51098E-05   216   0.149E-02
   75 T=  1656. E= -.26342062E+03 F= -.27678923E+03 E0= -.27670830E+03  EK= 0.13061E+02 SP= 0.29E+00 SK= 0.13E-01
 bond charge predicted
 prediction of wavefunctions
       N       E                     dE             d eps       ncg     rms          rms(c)
DAV:   1    -0.276787340989E+03    0.18936E-02   -0.13416E-02   640   0.670E+00    0.130E-01
DAV:   2    -0.276794660269E+03   -0.73193E-02   -0.69988E-02   384   0.824E-01    0.919E-01
DAV:   3    -0.276792369922E+03    0.22903E-02   -0.19891E-02   576   0.176E-01    0.269E-01
DAV:   4    -0.276792536521E+03   -0.16660E-03   -0.14942E-03   456   0.870E-02    0.148E-01
DAV:   5    -0.276792486526E+03    0.49995E-04   -0.71166E-04   440   0.487E-02    0.835E-02
DAV:   6    -0.276792461769E+03    0.24757E-04   -0.22441E-04   312   0.272E-02    0.317E-02
DAV:   7    -0.276792458808E+03    0.29609E-05   -0.36783E-05   216   0.146E-02
   76 T=  1663. E= -.26342108E+03 F= -.27679246E+03 E0= -.27671267E+03  EK= 0.13112E+02 SP= 0.25E+00 SK= 0.11E-01
 bond charge predicted
 prediction of wavefunctions
       N       E                     dE             d eps       ncg     rms          rms(c)
DAV:   1    -0.276747532623E+03    0.44929E-01   -0.12437E-02   616   0.671E+00    0.136E-01
DAV:   2    -0.276754274201E+03   -0.67416E-02   -0.65593E-02   384   0.833E-01    0.699E-01
DAV:   3    -0.276752872777E+03    0.14014E-02   -0.17090E-02   576   0.173E-01    0.349E-01
DAV:   4    -0.276752760905E+03    0.11187E-03   -0.42238E-03   448   0.897E-02    0.165E-01
DAV:   5    -0.276752732355E+03    0.28550E-04   -0.81260E-04   456   0.526E-02    0.106E-01
DAV:   6    -0.276752691311E+03    0.41044E-04   -0.17087E-04   360   0.323E-02    0.323E-02
DAV:   7    -0.276752689421E+03    0.18901E-05   -0.26209E-05   216   0.156E-02
   77 T=  1664. E= -.26342081E+03 F= -.27675269E+03 E0= -.27667376E+03  EK= 0.13117E+02 SP= 0.21E+00 SK= 0.90E-02
 bond charge predicted
 prediction of wavefunctions
       N       E                     dE             d eps       ncg     rms          rms(c)
DAV:   1    -0.276671452901E+03    0.81238E-01   -0.13092E-02   664   0.670E+00    0.127E-01
DAV:   2    -0.276677488768E+03   -0.60359E-02   -0.59741E-02   384   0.823E-01    0.522E-01
DAV:   3    -0.276676680770E+03    0.80800E-03   -0.12777E-02   568   0.160E-01    0.401E-01
DAV:   4    -0.276676358297E+03    0.32247E-03   -0.29675E-03   440   0.836E-02    0.820E-02
DAV:   5    -0.276676405155E+03   -0.46858E-04   -0.36329E-04   408   0.420E-02    0.917E-02
DAV:   6    -0.276676375481E+03    0.29674E-04   -0.22968E-04   272   0.245E-02    0.291E-02
DAV:   7    -0.276676374113E+03    0.13671E-05   -0.30629E-05   216   0.145E-02
   78 T=  1659. E= -.26342234E+03 F= -.27667637E+03 E0= -.27659834E+03  EK= 0.13080E+02 SP= 0.17E+00 SK= 0.74E-02
 bond charge predicted
 prediction of wavefunctions
       N       E                     dE             d eps       ncg     rms          rms(c)
DAV:   1    -0.276562624538E+03    0.11375E+00   -0.12328E-02   600   0.667E+00    0.120E-01
DAV:   2    -0.276568490843E+03   -0.58663E-02   -0.57443E-02   384   0.830E-01    0.435E-01
DAV:   3    -0.276567929519E+03    0.56132E-03   -0.87234E-03   568   0.145E-01    0.300E-01
DAV:   4    -0.276567781481E+03    0.14804E-03   -0.30884E-03   448   0.727E-02    0.135E-01
DAV:   5    -0.276567788336E+03   -0.68552E-05   -0.78475E-04   424   0.458E-02    0.112E-01
DAV:   6    -0.276567740334E+03    0.48002E-04   -0.24077E-04   320   0.280E-02    0.287E-02
DAV:   7    -0.276567741787E+03   -0.14529E-05   -0.36550E-05   224   0.158E-02
   79 T=  1650. E= -.26342226E+03 F= -.27656774E+03 E0= -.27649051E+03  EK= 0.13008E+02 SP= 0.13E+00 SK= 0.62E-02
 bond charge predicted
 prediction of wavefunctions
       N       E                     dE             d eps       ncg     rms          rms(c)
DAV:   1    -0.276436273992E+03    0.13147E+00   -0.13209E-02   640   0.662E+00    0.113E-01
DAV:   2    -0.276441842674E+03   -0.55687E-02   -0.56264E-02   384   0.823E-01    0.327E-01
DAV:   3    -0.276441397732E+03    0.44494E-03   -0.58850E-03   560   0.139E-01    0.193E-01
DAV:   4    -0.276441390818E+03    0.69143E-05   -0.19534E-03   480   0.574E-02    0.154E-01
DAV:   5    -0.276441335971E+03    0.54847E-04   -0.69609E-04   408   0.378E-02    0.730E-02
DAV:   6    -0.276441325170E+03    0.10801E-04   -0.14778E-04   256   0.218E-02    0.381E-02
DAV:   7    -0.276441322427E+03    0.27433E-05   -0.44497E-05   216   0.137E-02
   80 T=  1638. E= -.26342275E+03 F= -.27644132E+03 E0= -.27636496E+03  EK= 0.12915E+02 SP= 0.99E-01 SK= 0.52E-02
 bond charge predicted
 prediction of wavefunctions
       N       E                     dE             d eps       ncg     rms          rms(c)
DAV:   1    -0.276301296972E+03    0.14003E+00   -0.12196E-02   648   0.659E+00    0.876E-02
DAV:   2    -0.276306354964E+03   -0.50580E-02   -0.51268E-02   384   0.807E-01    0.118E-01
DAV:   3    -0.276306459336E+03   -0.10437E-03   -0.23172E-03   584   0.949E-02    0.184E-01
DAV:   4    -0.276306337016E+03    0.12232E-03   -0.11481E-03   504   0.488E-02    0.608E-02
DAV:   5    -0.276306331374E+03    0.56419E-05   -0.13608E-04   296   0.236E-02    0.459E-02
DAV:   6    -0.276306331354E+03    0.19962E-07   -0.84441E-05   232   0.140E-02
   81 T=  1625. E= -.26342154E+03 F= -.27630633E+03 E0= -.27623066E+03  EK= 0.12812E+02 SP= 0.68E-01 SK= 0.46E-02
 bond charge predicted
 prediction of wavefunctions
       N       E                     dE             d eps       ncg     rms          rms(c)
DAV:   1    -0.276168529707E+03    0.13780E+00   -0.14022E-02   632   0.657E+00    0.123E-01
DAV:   2    -0.276175738860E+03   -0.72092E-02   -0.72903E-02   384   0.843E-01    0.819E-01
DAV:   3    -0.276173746709E+03    0.19922E-02   -0.19676E-02   576   0.170E-01    0.264E-01
DAV:   4    -0.276173798970E+03   -0.52261E-04   -0.16275E-03   488   0.785E-02    0.850E-02
DAV:   5    -0.276173788730E+03    0.10240E-04   -0.31660E-04   400   0.372E-02    0.496E-02
DAV:   6    -0.276173781138E+03    0.75919E-05   -0.81571E-05   240   0.180E-02
   82 T=  1611. E= -.26342395E+03 F= -.27617378E+03 E0= -.27609904E+03  EK= 0.12706E+02 SP= 0.40E-01 SK= 0.42E-02
 bond charge predicted
 prediction of wavefunctions
       N       E                     dE             d eps       ncg     rms          rms(c)
DAV:   1    -0.276042915811E+03    0.13087E+00   -0.14496E-02   656   0.654E+00    0.168E-01
DAV:   2    -0.276052937025E+03   -0.10021E-01   -0.10348E-01   384   0.885E-01    0.109E+00
DAV:   3    -0.276048050996E+03    0.48860E-02   -0.42529E-02   568   0.260E-01    0.132E-01
DAV:   4    -0.276048447985E+03   -0.39699E-03   -0.11777E-03   448   0.754E-02    0.104E-01
DAV:   5    -0.276048440603E+03    0.73815E-05   -0.49756E-04   424   0.294E-02    0.858E-02
DAV:   6    -0.276048422935E+03    0.17669E-04   -0.11583E-04   264   0.183E-02    0.463E-02
DAV:   7    -0.276048422984E+03   -0.49196E-07   -0.66743E-05   232   0.170E-02
   83 T=  1599. E= -.26342661E+03 F= -.27604842E+03 E0= -.27597430E+03  EK= 0.12606E+02 SP= 0.12E-01 SK= 0.41E-02
 bond charge predicted
 prediction of wavefunctions
       N       E                     dE             d eps       ncg     rms          rms(c)
DAV:   1    -0.275933388128E+03    0.11503E+00   -0.19205E-02   592   0.652E+00    0.137E-01
DAV:   2    -0.275940911376E+03   -0.75232E-02   -0.75604E-02   400   0.879E-01    0.615E-01
DAV:   3    -0.275939793606E+03    0.11178E-02   -0.16460E-02   608   0.178E-01    0.323E-01
DAV:   4    -0.275939735943E+03    0.57663E-04   -0.29525E-03   464   0.897E-02    0.202E-01
DAV:   5    -0.275939655138E+03    0.80805E-04   -0.18629E-03   448   0.566E-02    0.985E-02
DAV:   6    -0.275939636264E+03    0.18873E-04   -0.43202E-04   392   0.332E-02    0.549E-02
DAV:   7    -0.275939628086E+03    0.81780E-05   -0.12285E-04   248   0.186E-02    0.260E-02
DAV:   8    -0.275939629415E+03   -0.13287E-05   -0.25156E-05   224   0.136E-02
   84 T=  1588. E= -.26342667E+03 F= -.27593963E+03 E0= -.27586582E+03  EK= 0.12525E+02 SP= -.16E-01 SK= 0.42E-02
 bond charge predicted
 prediction of wavefunctions
       N       E                     dE             d eps       ncg     rms          rms(c)
DAV:   1    -0.275848887937E+03    0.90740E-01   -0.23675E-02   600   0.647E+00    0.146E-01
DAV:   2    -0.275857337544E+03   -0.84496E-02   -0.84893E-02   408   0.914E-01    0.614E-01
DAV:   3    -0.275856307763E+03    0.10298E-02   -0.20097E-02   600   0.189E-01    0.340E-01
DAV:   4    -0.275856194558E+03    0.11321E-03   -0.35772E-03   520   0.926E-02    0.202E-01
DAV:   5    -0.275856140746E+03    0.53812E-04   -0.13762E-03   416   0.567E-02    0.118E-01
DAV:   6    -0.275856100134E+03    0.40612E-04   -0.51111E-04   384   0.348E-02    0.535E-02
[...]
       N       E                     dE             d eps       ncg     rms          rms(c)
DAV:   1    -0.277177078768E+03    0.26381E+00   -0.76844E-02   512   0.750E+00    0.204E-01
DAV:   2    -0.277194796796E+03   -0.17718E-01   -0.17535E-01   392   0.133E+00    0.618E-01
DAV:   3    -0.277193616422E+03    0.11804E-02   -0.19046E-02   600   0.238E-01    0.270E-01
DAV:   4    -0.277193734377E+03   -0.11796E-03   -0.49095E-03   536   0.118E-01    0.278E-01
DAV:   5    -0.277193509613E+03    0.22476E-03   -0.28937E-03   520   0.734E-02    0.136E-01
DAV:   6    -0.277193469915E+03    0.39698E-04   -0.50092E-04   408   0.394E-02    0.673E-02
DAV:   7    -0.277193461328E+03    0.85877E-05   -0.90161E-05   304   0.234E-02
  182 T=  1968. E= -.26343580E+03 F= -.27719346E+03 E0= -.27710240E+03  EK= 0.15521E+02 SP= -.20E+01 SK= 0.26E+00
 bond charge predicted
 prediction of wavefunctions
       N       E                     dE             d eps       ncg     rms          rms(c)
DAV:   1    -0.276930596078E+03    0.26287E+00   -0.93868E-02   480   0.735E+00    0.153E-01
DAV:   2    -0.276948365099E+03   -0.17769E-01   -0.17042E-01   400   0.128E+00    0.688E-01
DAV:   3    -0.276946808888E+03    0.15562E-02   -0.15378E-02   600   0.219E-01    0.151E-01
DAV:   4    -0.276946931373E+03   -0.12248E-03   -0.12085E-03   464   0.733E-02    0.141E-01
DAV:   5    -0.276946864692E+03    0.66680E-04   -0.46647E-04   464   0.383E-02    0.775E-02
DAV:   6    -0.276946860990E+03    0.37027E-05   -0.11261E-04   304   0.227E-02    0.715E-02
DAV:   7    -0.276946860809E+03    0.18008E-06   -0.17816E-04   304   0.231E-02    0.837E-02
DAV:   8    -0.276946856291E+03    0.45185E-05   -0.35745E-04   304   0.276E-02    0.917E-02
DAV:   9    -0.276946822220E+03    0.34071E-04   -0.19357E-04   320   0.270E-02    0.262E-02
DAV:  10    -0.276946823041E+03   -0.82087E-06   -0.41135E-05   280   0.201E-02
  183 T=  1902. E= -.26343123E+03 F= -.27694682E+03 E0= -.27685519E+03  EK= 0.14999E+02 SP= -.18E+01 SK= 0.31E+00
Information: wavefunction orthogonal band  192  0.8562
 bond charge predicted
 prediction of wavefunctions
       N       E                     dE             d eps       ncg     rms          rms(c)
DAV:   1    -0.276711790064E+03    0.23503E+00   -0.79459E-02   504   0.723E+00    0.205E-01
DAV:   2    -0.276728347489E+03   -0.16557E-01   -0.16550E-01   400   0.127E+00    0.470E-01
DAV:   3    -0.276727806599E+03    0.54089E-03   -0.13558E-02   616   0.218E-01    0.263E-01
DAV:   4    -0.276727895083E+03   -0.88484E-04   -0.46343E-03   512   0.109E-01    0.262E-01
DAV:   5    -0.276727643144E+03    0.25194E-03   -0.17351E-03   512   0.679E-02    0.116E-01
DAV:   6    -0.276727631620E+03    0.11524E-04   -0.48455E-04   368   0.351E-02    0.762E-02
DAV:   7    -0.276727619043E+03    0.12577E-04   -0.18240E-04   296   0.225E-02    0.361E-02
DAV:   8    -0.276727622583E+03   -0.35398E-05   -0.83221E-05   248   0.172E-02
  184 T=  1838. E= -.26343030E+03 F= -.27672762E+03 E0= -.27663580E+03  EK= 0.14490E+02 SP= -.15E+01 SK= 0.35E+00
 bond charge predicted
 prediction of wavefunctions
       N       E                     dE             d eps       ncg     rms          rms(c)
DAV:   1    -0.276525150104E+03    0.20247E+00   -0.89881E-02   496   0.712E+00    0.151E-01
DAV:   2    -0.276541871116E+03   -0.16721E-01   -0.16451E-01   408   0.123E+00    0.551E-01
DAV:   3    -0.276540821690E+03    0.10494E-02   -0.12295E-02   608   0.191E-01    0.135E-01
DAV:   4    -0.276540882740E+03   -0.61050E-04   -0.93350E-04   480   0.626E-02    0.106E-01
DAV:   5    -0.276540842885E+03    0.39855E-04   -0.24462E-04   416   0.295E-02    0.583E-02
DAV:   6    -0.276540842922E+03   -0.36729E-07   -0.12785E-04   280   0.199E-02    0.655E-02
DAV:   7    -0.276540838298E+03    0.46239E-05   -0.15502E-04   256   0.187E-02    0.685E-02
DAV:   8    -0.276540824864E+03    0.13434E-04   -0.11807E-04   264   0.195E-02    0.521E-02
DAV:   9    -0.276540816647E+03    0.82169E-05   -0.94005E-05   248   0.173E-02
  185 T=  1776. E= -.26343089E+03 F= -.27654082E+03 E0= -.27644874E+03  EK= 0.14006E+02 SP= -.13E+01 SK= 0.39E+00
 bond charge predicted
 prediction of wavefunctions
       N       E                     dE             d eps       ncg     rms          rms(c)
DAV:   1    -0.276368443248E+03    0.17238E+00   -0.11468E-01   504   0.704E+00    0.192E-01
DAV:   2    -0.276386093316E+03   -0.17650E-01   -0.17174E-01   408   0.122E+00    0.787E-01
DAV:   3    -0.276384279459E+03    0.18139E-02   -0.25167E-02   608   0.231E-01    0.246E-01
DAV:   4    -0.276384711202E+03   -0.43174E-03   -0.50602E-03   480   0.109E-01    0.364E-01
DAV:   5    -0.276384323823E+03    0.38738E-03   -0.27602E-03   496   0.730E-02    0.132E-01
DAV:   6    -0.276384304187E+03    0.19636E-04   -0.60058E-04   376   0.380E-02    0.640E-02
DAV:   7    -0.276384295342E+03    0.88454E-05   -0.96098E-05   304   0.215E-02
  186 T=  1719. E= -.26343145E+03 F= -.27638430E+03 E0= -.27629216E+03  EK= 0.13551E+02 SP= -.10E+01 SK= 0.41E+00
 bond charge predicted
 prediction of wavefunctions
       N       E                     dE             d eps       ncg     rms          rms(c)
DAV:   1    -0.276232163465E+03    0.15214E+00   -0.10023E-01   528   0.701E+00    0.197E-01
DAV:   2    -0.276252245420E+03   -0.20082E-01   -0.18978E-01   408   0.122E+00    0.109E+00
DAV:   3    -0.276247251200E+03    0.49942E-02   -0.31586E-02   616   0.277E-01    0.139E-01
DAV:   4    -0.276247695511E+03   -0.44431E-03   -0.16906E-03   456   0.857E-02    0.193E-01
DAV:   5    -0.276247591300E+03    0.10421E-03   -0.11933E-03   480   0.442E-02    0.983E-02
DAV:   6    -0.276247585089E+03    0.62104E-05   -0.22586E-04   328   0.250E-02    0.838E-02
DAV:   7    -0.276247575617E+03    0.94720E-05   -0.14456E-04   264   0.202E-02    0.686E-02
DAV:   8    -0.276247570271E+03    0.53462E-05   -0.12068E-04   296   0.240E-02    0.713E-02
DAV:   9    -0.276247549849E+03    0.20422E-04   -0.15040E-04   312   0.244E-02    0.419E-02
DAV:  10    -0.276247548438E+03    0.14103E-05   -0.95282E-05   296   0.219E-02
  187 T=  1664. E= -.26342870E+03 F= -.27624755E+03 E0= -.27615524E+03  EK= 0.13120E+02 SP= -.73E+00 SK= 0.43E+00
 bond charge predicted
 prediction of wavefunctions
       N       E                     dE             d eps       ncg     rms          rms(c)
DAV:   1    -0.276120083123E+03    0.12747E+00   -0.13018E-01   504   0.692E+00    0.218E-01
DAV:   2    -0.276138943359E+03   -0.18860E-01   -0.18433E-01   408   0.121E+00    0.988E-01
DAV:   3    -0.276136100134E+03    0.28432E-02   -0.37569E-02   608   0.242E-01    0.240E-01
DAV:   4    -0.276136658876E+03   -0.55874E-03   -0.45381E-03   480   0.125E-01    0.352E-01
DAV:   5    -0.276136311156E+03    0.34772E-03   -0.33998E-03   512   0.847E-02    0.192E-01
DAV:   6    -0.276136249170E+03    0.61986E-04   -0.10974E-03   408   0.464E-02    0.109E-01
DAV:   7    -0.276136224479E+03    0.24691E-04   -0.29326E-04   336   0.268E-02    0.430E-02
DAV:   8    -0.276136226969E+03   -0.24894E-05   -0.47723E-05   248   0.174E-02
  188 T=  1613. E= -.26342890E+03 F= -.27613623E+03 E0= -.27604371E+03  EK= 0.12718E+02 SP= -.45E+00 SK= 0.44E+00
 bond charge predicted
 prediction of wavefunctions
       N       E                     dE             d eps       ncg     rms          rms(c)
DAV:   1    -0.276036355589E+03    0.99869E-01   -0.91264E-02   536   0.680E+00    0.144E-01
DAV:   2    -0.276051298482E+03   -0.14943E-01   -0.14805E-01   400   0.114E+00    0.496E-01
DAV:   3    -0.276050784885E+03    0.51360E-03   -0.11601E-02   616   0.178E-01    0.218E-01
DAV:   4    -0.276050907370E+03   -0.12248E-03   -0.26714E-03   544   0.781E-02    0.286E-01
DAV:   5    -0.276050676614E+03    0.23076E-03   -0.13835E-03   448   0.479E-02    0.795E-02
DAV:   6    -0.276050691438E+03   -0.14823E-04   -0.12683E-04   328   0.262E-02    0.734E-02
DAV:   7    -0.276050693341E+03   -0.19035E-05   -0.12419E-04   304   0.243E-02    0.744E-02
DAV:   8    -0.276050696138E+03   -0.27971E-05   -0.25869E-04   344   0.303E-02    0.869E-02
DAV:   9    -0.276050670937E+03    0.25201E-04   -0.19655E-04   296   0.262E-02    0.393E-02
DAV:  10    -0.276050671901E+03   -0.96466E-06   -0.85643E-05   272   0.206E-02
  189 T=  1566. E= -.26342622E+03 F= -.27605067E+03 E0= -.27595784E+03  EK= 0.12352E+02 SP= -.16E+00 SK= 0.44E+00
 bond charge predicted
 prediction of wavefunctions
       N       E                     dE             d eps       ncg     rms          rms(c)
DAV:   1    -0.275997691768E+03    0.52979E-01   -0.95097E-02   488   0.670E+00    0.166E-01
DAV:   2    -0.276012882517E+03   -0.15191E-01   -0.15196E-01   400   0.114E+00    0.468E-01
DAV:   3    -0.276012316894E+03    0.56562E-03   -0.11862E-02   616   0.202E-01    0.185E-01
DAV:   4    -0.276012394031E+03   -0.77137E-04   -0.17764E-03   544   0.847E-02    0.226E-01
DAV:   5    -0.276012257130E+03    0.13690E-03   -0.15090E-03   488   0.512E-02    0.127E-01
DAV:   6    -0.276012229846E+03    0.27284E-04   -0.33404E-04   376   0.310E-02    0.678E-02
DAV:   7    -0.276012225937E+03    0.39094E-05   -0.15820E-04   280   0.181E-02    0.442E-02
DAV:   8    -0.276012225966E+03   -0.29788E-07   -0.50178E-05   256   0.156E-02
  190 T=  1527. E= -.26342440E+03 F= -.27601223E+03 E0= -.27591911E+03  EK= 0.12041E+02 SP= 0.12E+00 SK= 0.43E+00
 bond charge predicted
 prediction of wavefunctions
       N       E                     dE             d eps       ncg     rms          rms(c)
DAV:   1    -0.276030583131E+03   -0.18357E-01   -0.82276E-02   440   0.658E+00    0.164E-01
DAV:   2    -0.276046484925E+03   -0.15902E-01   -0.15310E-01   400   0.112E+00    0.875E-01
DAV:   3    -0.276043710069E+03    0.27749E-02   -0.23733E-02   592   0.231E-01    0.141E-01
DAV:   4    -0.276043964967E+03   -0.25490E-03   -0.11631E-03   472   0.743E-02    0.204E-01
DAV:   5    -0.276043880707E+03    0.84260E-04   -0.80821E-04   480   0.396E-02    0.112E-01
DAV:   6    -0.276043869631E+03    0.11076E-04   -0.20088E-04   304   0.269E-02    0.751E-02
DAV:   7    -0.276043886191E+03   -0.16560E-04   -0.16768E-04   336   0.276E-02    0.874E-02
DAV:   8    -0.276043886403E+03   -0.21199E-06   -0.36062E-04   352   0.304E-02    0.848E-02
DAV:   9    -0.276043870242E+03    0.16162E-04   -0.26671E-04   344   0.282E-02    0.533E-02
DAV:  10    -0.276043866822E+03    0.34199E-05   -0.14543E-04   296   0.223E-02    0.385E-02
DAV:  11    -0.276043862869E+03    0.39532E-05   -0.71852E-05   216   0.141E-02
  191 T=  1498. E= -.26342093E+03 F= -.27604386E+03 E0= -.27595063E+03  EK= 0.11812E+02 SP= 0.40E+00 SK= 0.41E+00
 bond charge predicted
 prediction of wavefunctions
       N       E                     dE             d eps       ncg     rms          rms(c)
DAV:   1    -0.276148294591E+03   -0.10443E+00   -0.86105E-02   432   0.648E+00    0.182E-01
DAV:   2    -0.276163753621E+03   -0.15459E-01   -0.14087E-01   416   0.111E+00    0.830E-01
DAV:   3    -0.276161197821E+03    0.25558E-02   -0.14749E-02   608   0.243E-01    0.158E-01
DAV:   4    -0.276161590020E+03   -0.39220E-03   -0.31880E-03   488   0.914E-02    0.254E-01
DAV:   5    -0.276161369661E+03    0.22036E-03   -0.16313E-03   512   0.579E-02    0.966E-02
DAV:   6    -0.276161366113E+03    0.35483E-05   -0.30626E-04   360   0.281E-02    0.841E-02
DAV:   7    -0.276161357437E+03    0.86756E-05   -0.14033E-04   280   0.188E-02    0.458E-02
DAV:   8    -0.276161359991E+03   -0.25541E-05   -0.54158E-05   256   0.159E-02
  192 T=  1481. E= -.26341634E+03 F= -.27616136E+03 E0= -.27606799E+03  EK= 0.11680E+02 SP= 0.67E+00 SK= 0.39E+00
 bond charge predicted
 prediction of wavefunctions
       N       E                     dE             d eps       ncg     rms          rms(c)
DAV:   1    -0.276365283451E+03   -0.20393E+00   -0.58339E-02   448   0.642E+00    0.133E-01
DAV:   2    -0.276376615779E+03   -0.11332E-01   -0.11135E-01   416   0.103E+00    0.409E-01
DAV:   3    -0.276376112225E+03    0.50355E-03   -0.82958E-03   608   0.162E-01    0.156E-01
DAV:   4    -0.276376164788E+03   -0.52563E-04   -0.12322E-03   512   0.654E-02    0.186E-01
DAV:   5    -0.276376110276E+03    0.54512E-04   -0.75878E-04   416   0.404E-02    0.136E-01
DAV:   6    -0.276376072694E+03    0.37582E-04   -0.19361E-04   320   0.278E-02    0.583E-02
DAV:   7    -0.276376097783E+03   -0.25090E-04   -0.17869E-04   304   0.236E-02    0.856E-02
DAV:   8    -0.276376093890E+03    0.38928E-05   -0.23598E-04   320   0.267E-02    0.639E-02
DAV:   9    -0.276376086058E+03    0.78324E-05   -0.96018E-05   288   0.230E-02
  193 T=  1477. E= -.26341784E+03 F= -.27637609E+03 E0= -.27628275E+03  EK= 0.11647E+02 SP= 0.94E+00 SK= 0.37E+00
 bond charge predicted
 prediction of wavefunctions
       N       E                     dE             d eps       ncg     rms          rms(c)
DAV:   1    -0.276650141500E+03   -0.27405E+00   -0.46326E-02   456   0.645E+00    0.159E-01
DAV:   2    -0.276661062435E+03   -0.10921E-01   -0.10849E-01   400   0.103E+00    0.430E-01
DAV:   3    -0.276660893748E+03    0.16869E-03   -0.82650E-03   608   0.169E-01    0.403E-01
DAV:   4    -0.276660679326E+03    0.21442E-03   -0.29041E-03   544   0.939E-02    0.212E-01
DAV:   5    -0.276660597063E+03    0.82264E-04   -0.11556E-03   488   0.599E-02    0.106E-01
DAV:   6    -0.276660561391E+03    0.35672E-04   -0.22641E-04   400   0.313E-02    0.459E-02
DAV:   7    -0.276660564959E+03   -0.35680E-05   -0.11999E-04   288   0.197E-02    0.452E-02
DAV:   8    -0.276660562508E+03    0.24512E-05   -0.68630E-05   224   0.149E-02
  194 T=  1483. E= -.26341826E+03 F= -.27666056E+03 E0= -.27656736E+03  EK= 0.11690E+02 SP= 0.12E+01 SK= 0.35E+00
 bond charge predicted
 prediction of wavefunctions
       N       E                     dE             d eps       ncg     rms          rms(c)
DAV:   1    -0.276968842323E+03   -0.30828E+00   -0.46372E-02   496   0.651E+00    0.153E-01
DAV:   2    -0.276980144180E+03   -0.11302E-01   -0.10823E-01   400   0.104E+00    0.432E-01
DAV:   3    -0.276979619718E+03    0.52446E-03   -0.63136E-03   600   0.175E-01    0.311E-01
DAV:   4    -0.276979564430E+03    0.55289E-04   -0.17724E-03   528   0.789E-02    0.227E-01
DAV:   5    -0.276979487301E+03    0.77128E-04   -0.75789E-04   464   0.536E-02    0.116E-01
DAV:   6    -0.276979452276E+03    0.35025E-04   -0.35596E-04   368   0.307E-02    0.518E-02
DAV:   7    -0.276979468774E+03   -0.16498E-04   -0.13214E-04   280   0.217E-02    0.673E-02
DAV:   8    -0.276979463537E+03    0.52370E-05   -0.10084E-04   264   0.211E-02    0.395E-02
DAV:   9    -0.276979465389E+03   -0.18524E-05   -0.74395E-05   272   0.194E-02
  195 T=  1493. E= -.26342071E+03 F= -.27697947E+03 E0= -.27688651E+03  EK= 0.11771E+02 SP= 0.15E+01 SK= 0.34E+00
 bond charge predicted
 prediction of wavefunctions
       N       E                     dE             d eps       ncg     rms          rms(c)
DAV:   1    -0.277281289376E+03   -0.30183E+00   -0.50498E-02   496   0.657E+00    0.164E-01
DAV:   2    -0.277293169842E+03   -0.11880E-01   -0.11714E-01   384   0.107E+00    0.391E-01
DAV:   3    -0.277293300859E+03   -0.13102E-03   -0.63825E-03   608   0.165E-01    0.470E-01
DAV:   4    -0.277292890314E+03    0.41054E-03   -0.21406E-03   560   0.984E-02    0.167E-01
DAV:   5    -0.277292847332E+03    0.42982E-04   -0.85401E-04   480   0.570E-02    0.791E-02
DAV:   6    -0.277292830621E+03    0.16711E-04   -0.20172E-04   336   0.272E-02    0.396E-02
DAV:   7    -0.277292839429E+03   -0.88077E-05   -0.69659E-05   264   0.206E-02
  196 T=  1503. E= -.26342190E+03 F= -.27729284E+03 E0= -.27720013E+03  EK= 0.11852E+02 SP= 0.17E+01 SK= 0.32E+00
 bond charge predicted
 prediction of wavefunctions
       N       E                     dE             d eps       ncg     rms          rms(c)
DAV:   1    -0.277559882416E+03   -0.26705E+00   -0.43040E-02   488   0.660E+00    0.171E-01
DAV:   2    -0.277573715904E+03   -0.13833E-01   -0.12384E-01   400   0.107E+00    0.867E-01
DAV:   3    -0.277570989421E+03    0.27265E-02   -0.16450E-02   600   0.208E-01    0.159E-01
DAV:   4    -0.277571200262E+03   -0.21084E-03   -0.13358E-03   488   0.843E-02    0.243E-01
DAV:   5    -0.277571094427E+03    0.10583E-03   -0.65455E-04   456   0.501E-02    0.163E-01
DAV:   6    -0.277571043676E+03    0.50751E-04   -0.29383E-04   360   0.358E-02    0.584E-02
DAV:   7    -0.277571050713E+03   -0.70362E-05   -0.10711E-04   304   0.244E-02    0.542E-02
DAV:   8    -0.277571058619E+03   -0.79062E-05   -0.11503E-04   296   0.247E-02    0.554E-02
DAV:   9    -0.277571048175E+03    0.10444E-04   -0.12200E-04   280   0.220E-02    0.250E-02
DAV:  10    -0.277571048814E+03   -0.63947E-06   -0.28758E-05   216   0.158E-02
  197 T=  1509. E= -.26342296E+03 F= -.27757105E+03 E0= -.27747867E+03  EK= 0.11901E+02 SP= 0.19E+01 SK= 0.31E+00
 bond charge predicted
 prediction of wavefunctions
       N       E                     dE             d eps       ncg     rms          rms(c)
DAV:   1    -0.277785269546E+03   -0.21422E+00   -0.42775E-02   496   0.658E+00    0.189E-01
DAV:   2    -0.277797469160E+03   -0.12200E-01   -0.11785E-01   384   0.105E+00    0.607E-01
DAV:   3    -0.277796355310E+03    0.11139E-02   -0.92268E-03   600   0.182E-01    0.341E-01
DAV:   4    -0.277796618469E+03   -0.26316E-03   -0.19980E-03   528   0.102E-01    0.422E-01
DAV:   5    -0.277796223091E+03    0.39538E-03   -0.17308E-03   480   0.785E-02    0.137E-01
DAV:   6    -0.277796179516E+03    0.43575E-04   -0.54387E-04   424   0.449E-02    0.465E-02
DAV:   7    -0.277796185139E+03   -0.56235E-05   -0.94224E-05   288   0.244E-02
  198 T=  1509. E= -.26342365E+03 F= -.27779619E+03 E0= -.27770406E+03  EK= 0.11902E+02 SP= 0.22E+01 SK= 0.29E+00
 bond charge predicted
 prediction of wavefunctions
       N       E                     dE             d eps       ncg     rms          rms(c)
DAV:   1    -0.277956537476E+03   -0.16036E+00   -0.39565E-02   504   0.652E+00    0.160E-01
DAV:   2    -0.277968024698E+03   -0.11487E-01   -0.10938E-01   400   0.102E+00    0.570E-01
DAV:   3    -0.277966812694E+03    0.12120E-02   -0.12067E-02   608   0.185E-01    0.199E-01
DAV:   4    -0.277966825477E+03   -0.12783E-04   -0.22765E-03   488   0.847E-02    0.181E-01
DAV:   5    -0.277966777352E+03    0.48125E-04   -0.86700E-04   456   0.494E-02    0.167E-01
DAV:   6    -0.277966738682E+03    0.38670E-04   -0.24545E-04   368   0.323E-02    0.996E-02
DAV:   7    -0.277966720063E+03    0.18619E-04   -0.10514E-04   288   0.259E-02    0.452E-02
DAV:   8    -0.277966730821E+03   -0.10758E-04   -0.91120E-05   288   0.241E-02    0.550E-02
DAV:   9    -0.277966721505E+03    0.93155E-05   -0.10104E-04   288   0.227E-02    0.301E-02
DAV:  10    -0.277966719705E+03    0.18001E-05   -0.49737E-05   224   0.159E-02
  199 T=  1503. E= -.26342334E+03 F= -.27796672E+03 E0= -.27787478E+03  EK= 0.11855E+02 SP= 0.24E+01 SK= 0.28E+00
 bond charge predicted
 prediction of wavefunctions
       N       E                     dE             d eps       ncg     rms          rms(c)
DAV:   1    -0.278079382910E+03   -0.11266E+00   -0.44100E-02   544   0.644E+00    0.177E-01
DAV:   2    -0.278089398332E+03   -0.10015E-01   -0.98660E-02   384   0.993E-01    0.584E-01
DAV:   3    -0.278088094304E+03    0.13040E-02   -0.15787E-02   600   0.184E-01    0.268E-01
DAV:   4    -0.278088383071E+03   -0.28877E-03   -0.21627E-03   456   0.894E-02    0.395E-01
DAV:   5    -0.278088104506E+03    0.27856E-03   -0.11838E-03   496   0.736E-02    0.174E-01
DAV:   6    -0.278088048134E+03    0.56373E-04   -0.86369E-04   416   0.485E-02    0.701E-02
DAV:   7    -0.278088044836E+03    0.32981E-05   -0.16291E-04   344   0.271E-02    0.444E-02
DAV:   8    -0.278088039997E+03    0.48384E-05   -0.47570E-05   216   0.162E-02
  200 T=  1492. E= -.26342023E+03 F= -.27808804E+03 E0= -.27799621E+03  EK= 0.11768E+02 SP= 0.26E+01 SK= 0.27E+00
 bond charge predicted
 prediction of wavefunctions
 wavefunctions rotated
