 running on   16 total cores
 distrk:  each k-point on   16 cores,    1 groups
 distr:  one band on    4 cores,    4 groups
 using from now: INCAR     
 vasp.5.4.4.18Apr17-6-g9f103f2a35 (build Oct 18 2021 17:02:20) complex          
  
 POSCAR found type information on POSCAR  F  Li
 POSCAR found :  2 types and      62 ions
 scaLAPACK will be used
 LDA part: xc-table for Pade appr. of Perdew
 POSCAR found type information on POSCAR  F  Li
 POSCAR found :  2 types and      62 ions

 ----------------------------------------------------------------------------- 
|                                                                             |
|           W    W    AA    RRRRR   N    N  II  N    N   GGGG   !!!           |
|           W    W   A  A   R    R  NN   N  II  NN   N  G    G  !!!           |
|           W    W  A    A  R    R  N N  N  II  N N  N  G       !!!           |
|           W WW W  AAAAAA  RRRRR   N  N N  II  N  N N  G  GGG   !            |
|           WW  WW  A    A  R   R   N   NN  II  N   NN  G    G                |
|           W    W  A    A  R    R  N    N  II  N    N   GGGG   !!!           |
|                                                                             |
|      The initial velocities result in a center of mass drift but            |
|      there must be no drift.                                                |
|      The drift will be removed !                                            |
|                                                                             |
 ----------------------------------------------------------------------------- 

 POSCAR, INCAR and KPOINTS ok, starting setup
 FFT: planning ...
 WAVECAR not read
 WARNING: random wavefunctions but no delay for mixing, default for NELMDL
 prediction of wavefunctions initialized - no I/O
 entering main loop
       N       E                     dE             d eps       ncg     rms          rms(c)
DAV:   1     0.355004220310E+04    0.35500E+04   -0.15952E+05   384   0.184E+03
DAV:   2     0.112343359152E+03   -0.34377E+04   -0.32495E+04   416   0.520E+02
DAV:   3    -0.244035710989E+03   -0.35638E+03   -0.35359E+03   480   0.163E+02
DAV:   4    -0.287869812880E+03   -0.43834E+02   -0.43482E+02   720   0.447E+01
DAV:   5    -0.293586314271E+03   -0.57165E+01   -0.57127E+01   544   0.125E+01    0.289E+01
DAV:   6    -0.275188117984E+03    0.18398E+02   -0.14307E+02   440   0.273E+01    0.173E+01
DAV:   7    -0.274626561226E+03    0.56156E+00   -0.79702E+01   536   0.167E+01    0.158E+01
DAV:   8    -0.274160346550E+03    0.46621E+00   -0.44918E+01   496   0.103E+01    0.118E+01
DAV:   9    -0.272283103159E+03    0.18772E+01   -0.31615E+00   536   0.705E+00    0.680E+00
DAV:  10    -0.272527934022E+03   -0.24483E+00   -0.71966E+00   448   0.481E+00    0.886E+00
DAV:  11    -0.274205523032E+03   -0.16776E+01   -0.16404E+01   480   0.569E+00    0.137E+01
DAV:  12    -0.272492469854E+03    0.17131E+01   -0.54512E+00   504   0.533E+00    0.575E+00
DAV:  13    -0.272301432460E+03    0.19104E+00   -0.15140E+00   432   0.232E+00    0.509E+00
DAV:  14    -0.272307334535E+03   -0.59021E-02   -0.25074E+00   440   0.178E+00    0.359E+00
DAV:  15    -0.272282526998E+03    0.24808E-01   -0.14583E-01   480   0.890E-01    0.267E+00
DAV:  16    -0.272256127235E+03    0.26400E-01   -0.16021E-01   464   0.646E-01    0.537E-01
DAV:  17    -0.272270116858E+03   -0.13990E-01   -0.13746E-01   448   0.440E-01    0.231E+00
DAV:  18    -0.272279862027E+03   -0.97452E-02   -0.57606E-01   536   0.719E-01    0.256E+00
DAV:  19    -0.272265792346E+03    0.14070E-01   -0.38798E-02   416   0.286E-01    0.162E+00
DAV:  20    -0.272258925270E+03    0.68671E-02   -0.37371E-02   464   0.225E-01    0.358E-01
DAV:  21    -0.272260253252E+03   -0.13280E-02   -0.13889E-03   448   0.893E-02    0.239E-01
DAV:  22    -0.272260297818E+03   -0.44565E-04   -0.10552E-03   424   0.367E-02    0.461E-02
DAV:  23    -0.272260454132E+03   -0.15631E-03   -0.11596E-03   400   0.377E-02    0.208E-01
DAV:  24    -0.272260346240E+03    0.10789E-03   -0.10663E-03   368   0.349E-02    0.448E-02
DAV:  25    -0.272260360985E+03   -0.14745E-04   -0.48223E-05   272   0.134E-02    0.413E-02
DAV:  26    -0.272260357520E+03    0.34652E-05   -0.62709E-05   216   0.864E-03
    1 T=  1124. E= -.26339684E+03 F= -.27226036E+03 E0= -.27221881E+03  EK= 0.88635E+01 SP= 0.00E+00 SK= 0.00E+00
 bond charge predicted
       N       E                     dE             d eps       ncg     rms          rms(c)
DAV:   1    -0.271696857112E+03    0.56350E+00   -0.70335E+01   384   0.256E+01    0.132E+00
DAV:   2    -0.272041416126E+03   -0.34456E+00   -0.38304E+00   432   0.391E+00    0.700E+00
DAV:   3    -0.271905240580E+03    0.13618E+00   -0.20853E+00   560   0.153E+00    0.476E+00
DAV:   4    -0.271820332998E+03    0.84908E-01   -0.38474E-01   488   0.948E-01    0.777E-01
DAV:   5    -0.271826418831E+03   -0.60858E-02   -0.28318E-02   456   0.423E-01    0.713E-01
DAV:   6    -0.271824556077E+03    0.18628E-02   -0.17946E-02   536   0.247E-01    0.347E-01
DAV:   7    -0.271823251983E+03    0.13041E-02   -0.40827E-03   464   0.219E-01    0.273E-01
DAV:   8    -0.271822383696E+03    0.86829E-03   -0.37360E-03   464   0.207E-01    0.709E-02
DAV:   9    -0.271822464051E+03   -0.80354E-04   -0.97155E-04   472   0.802E-02    0.598E-02
DAV:  10    -0.271822486101E+03   -0.22051E-04   -0.55502E-04   472   0.313E-02    0.106E-01
DAV:  11    -0.271822461047E+03    0.25055E-04   -0.48475E-04   288   0.237E-02    0.467E-02
DAV:  12    -0.271822459296E+03    0.17502E-05   -0.34696E-05   224   0.127E-02
    2 T=  1070. E= -.26339565E+03 F= -.27182246E+03 E0= -.27178234E+03  EK= 0.84368E+01 SP= -.15E-01 SK= 0.46E-02
 bond charge predicted
 prediction of wavefunctions
       N       E                     dE             d eps       ncg     rms          rms(c)
DAV:   1    -0.271451719496E+03    0.37074E+00   -0.88485E-01   384   0.603E+00    0.547E-01
DAV:   2    -0.271553051372E+03   -0.10133E+00   -0.10683E+00   392   0.198E+00    0.561E+00
DAV:   3    -0.271476352124E+03    0.76699E-01   -0.71364E-01   552   0.732E-01    0.898E-01
DAV:   4    -0.271489052932E+03   -0.12701E-01   -0.57021E-02   432   0.315E-01    0.915E-01
DAV:   5    -0.271486929070E+03    0.21239E-02   -0.22002E-02   472   0.202E-01    0.271E-01
DAV:   6    -0.271486812168E+03    0.11690E-03   -0.26735E-03   480   0.100E-01    0.137E-01
DAV:   7    -0.271486662669E+03    0.14950E-03   -0.32670E-04   400   0.548E-02    0.859E-02
DAV:   8    -0.271486607018E+03    0.55651E-04   -0.11215E-04   424   0.372E-02    0.506E-02
DAV:   9    -0.271486583387E+03    0.23631E-04   -0.51899E-05   408   0.275E-02    0.185E-02
DAV:  10    -0.271486583723E+03   -0.33606E-06   -0.22987E-05   248   0.161E-02
    3 T=  1031. E= -.26339411E+03 F= -.27148658E+03 E0= -.27144765E+03  EK= 0.81322E+01 SP= -.60E-01 SK= 0.20E-01
 bond charge predicted
 prediction of wavefunctions
       N       E                     dE             d eps       ncg     rms          rms(c)
DAV:   1    -0.271267415755E+03    0.21917E+00   -0.35839E-03   568   0.476E+00    0.926E-02
DAV:   2    -0.271270802711E+03   -0.33870E-02   -0.34889E-02   392   0.529E-01    0.649E-01
DAV:   3    -0.271269637629E+03    0.11651E-02   -0.11250E-02   576   0.108E-01    0.103E-01
DAV:   4    -0.271269789593E+03   -0.15196E-03   -0.60311E-04   432   0.430E-02    0.105E-01
DAV:   5    -0.271269759998E+03    0.29595E-04   -0.27832E-04   304   0.200E-02    0.338E-02
DAV:   6    -0.271269760965E+03   -0.96719E-06   -0.38981E-05   216   0.133E-02
    4 T=  1010. E= -.26339439E+03 F= -.27126976E+03 E0= -.27123191E+03  EK= 0.79648E+01 SP= -.14E+00 SK= 0.49E-01
 bond charge predicted
 prediction of wavefunctions
       N       E                     dE             d eps       ncg     rms          rms(c)
DAV:   1    -0.271171447648E+03    0.98312E-01   -0.44006E-03   584   0.477E+00    0.438E-02
DAV:   2    -0.271173942211E+03   -0.24946E-02   -0.24891E-02   400   0.504E-01    0.208E-01
DAV:   3    -0.271173857102E+03    0.85109E-04   -0.16322E-03   608   0.543E-02    0.867E-02
DAV:   4    -0.271173847193E+03    0.99093E-05   -0.11932E-04   336   0.192E-02    0.529E-02
DAV:   5    -0.271173844778E+03    0.24153E-05   -0.15665E-05   232   0.804E-03
    5 T=  1007. E= -.26339457E+03 F= -.27117384E+03 E0= -.27113702E+03  EK= 0.79392E+01 SP= -.25E+00 SK= 0.90E-01
 bond charge predicted
 prediction of wavefunctions
 wavefunctions rotated
