<?xml version="1.0" encoding="ISO-8859-1"?>
<modeling>
 <generator>
  <i name="program" type="string">vasp </i>
  <i name="version" type="string">5.4.4.18Apr17-6-g9f103f2a35  </i>
  <i name="subversion" type="string">(build Oct 18 2021 17:02:20) complex            parallel </i>
  <i name="platform" type="string">LinuxIFC </i>
  <i name="date" type="string">2023 06 13 </i>
  <i name="time" type="string">17:36:18 </i>
 </generator>
 <incar>
  <i type="string" name="SYSTEM"> LiF</i>
  <i type="string" name="PREC">normal</i>
  <i type="int" name="IALGO">    48</i>
  <i type="string" name="ALGO"> Normal</i>
  <i type="logical" name="ADDGRID"> T  </i>
  <i type="int" name="NELMIN">     4</i>
  <i type="int" name="IBRION">     0</i>
  <i name="EDIFF">      0.00001000</i>
  <i type="int" name="NSW">   200</i>
  <i type="int" name="ISIF">     2</i>
  <i name="ENCUT">    520.00000000</i>
  <i name="POTIM">      1.00000000</i>
  <i name="TEBEG">   1600.00000000</i>
  <i name="SMASS">      1.00000000</i>
  <i type="string" name="LREAL"> A</i>
  <i type="int" name="ISMEAR">     0</i>
  <i name="SIGMA">      0.10000000</i>
  <i type="int" name="NWRITE">     0</i>
  <i type="logical" name="LWAVE"> F  </i>
  <i type="logical" name="LCHARG"> F  </i>
  <i type="int" name="MDALGO">     2</i>
  <v type="int" name="KPOINT_BSE">    -1     0     0     0</v>
 </incar>
 <structure name="primitive_cell" >
  <crystal>
   <varray name="basis" >
    <v>       8.13341700       0.00000000       0.00000000 </v>
    <v>       0.00000000       8.11490900       0.00000000 </v>
    <v>       0.00000000       0.00000000       8.11490900 </v>
   </varray>
   <i name="volume">    535.59972730 </i>
   <varray name="rec_basis" >
    <v>       0.12294955       0.00000000       0.00000000 </v>
    <v>       0.00000000       0.12322997       0.00000000 </v>
    <v>       0.00000000       0.00000000       0.12322997 </v>
   </varray>
  </crystal>
  <varray name="positions" >
   <v>       0.04582475      -0.15281400       0.42179062 </v>
   <v>       0.20842703      -0.20062591      -0.44733899 </v>
   <v>      -0.04046494      -0.01118844      -0.40386150 </v>
   <v>       0.22084430      -0.02126878       0.27507796 </v>
   <v>      -0.18240761      -0.29402715       0.39818603 </v>
   <v>       0.26632668      -0.22639905       0.27007464 </v>
   <v>       0.14615259      -0.06387382      -0.30853722 </v>
   <v>       0.01174485      -0.03659182       0.14565419 </v>
   <v>       0.15129479      -0.43372902      -0.45608149 </v>
   <v>      -0.25669526      -0.02568785       0.47438028 </v>
   <v>      -0.19201319       0.00876199       0.25210263 </v>
   <v>      -0.01206403      -0.31582378      -0.28371892 </v>
   <v>       0.30498238       0.05397046      -0.49747711 </v>
   <v>      -0.03268946      -0.48124610       0.26819984 </v>
   <v>       0.00951608       0.20277469      -0.46649985 </v>
   <v>       0.21432776      -0.47576905       0.23927348 </v>
   <v>       0.00586692       0.20795145       0.20010831 </v>
   <v>       0.00801615       0.41603901       0.46064761 </v>
   <v>      -0.22929064      -0.24695249      -0.25553367 </v>
   <v>      -0.28527484      -0.31950169       0.16550228 </v>
   <v>       0.25013481       0.24852351       0.48263552 </v>
   <v>       0.46239818      -0.27778077      -0.42124579 </v>
   <v>       0.20903272       0.25181241       0.26379297 </v>
   <v>       0.20623443      -0.19667186      -0.01331039 </v>
   <v>       0.25462113       0.04811710       0.05514940 </v>
   <v>       0.48648209      -0.00710462       0.48161406 </v>
   <v>      -0.26126003       0.49053256       0.44178568 </v>
   <v>       0.32065763      -0.17961574      -0.18811998 </v>
   <v>      -0.24647035       0.21318236       0.30153936 </v>
   <v>      -0.03593984      -0.05704825      -0.04678151 </v>
   <v>      -0.16978263       0.09135208      -0.21803024 </v>
   <v>       0.43680779      -0.43765490       0.46230513 </v>
   <v>      -0.49425154      -0.20994589       0.26699195 </v>
   <v>       0.43586088      -0.41734991       0.25688099 </v>
   <v>      -0.07672385       0.45524412      -0.28966602 </v>
   <v>      -0.34659329      -0.06216294      -0.26725300 </v>
   <v>       0.01947120      -0.32348961      -0.09011776 </v>
   <v>       0.02998251       0.25943578      -0.25112380 </v>
   <v>       0.28186943      -0.45898603      -0.22101235 </v>
   <v>      -0.47813139       0.02840061       0.27362691 </v>
   <v>      -0.26197226       0.26930245      -0.45518707 </v>
   <v>       0.31793465       0.09100585      -0.18301596 </v>
   <v>      -0.23966508       0.00828638      -0.00771686 </v>
   <v>      -0.24796660       0.44648263       0.20323736 </v>
   <v>      -0.22264758      -0.31022965      -0.03537291 </v>
   <v>       0.03847684       0.48012047       0.00612204 </v>
   <v>       0.25982263      -0.47635331       0.01997187 </v>
   <v>      -0.32983162      -0.43597831      -0.26776444 </v>
   <v>      -0.00469753       0.25789870      -0.01100874 </v>
   <v>       0.25595084       0.29325805      -0.23866963 </v>
   <v>       0.28136107       0.27630602       0.05230102 </v>
   <v>       0.49983866       0.02249574       0.03419288 </v>
   <v>      -0.22538807       0.23304180       0.00604648 </v>
   <v>      -0.47882829       0.08431345      -0.23232484 </v>
   <v>      -0.43066447      -0.19638297      -0.01559284 </v>
   <v>      -0.48929107       0.30264997       0.48620971 </v>
   <v>      -0.24978698       0.46840466      -0.04273837 </v>
   <v>      -0.45241809       0.28105255       0.30583972 </v>
   <v>       0.48236181       0.48520290      -0.16838132 </v>
   <v>      -0.49626676       0.49383715       0.02689798 </v>
   <v>       0.49760398       0.30436206      -0.28442647 </v>
   <v>       0.49875219       0.28892295       0.07945556 </v>
  </varray>
 </structure>
 <varray name="primitive_index" >
  <v type="int" >        1 </v>
  <v type="int" >       38 </v>
  <v type="int" >       35 </v>
  <v type="int" >       43 </v>
  <v type="int" >       53 </v>
  <v type="int" >       24 </v>
  <v type="int" >       28 </v>
  <v type="int" >       31 </v>
  <v type="int" >        2 </v>
  <v type="int" >       11 </v>
  <v type="int" >       56 </v>
  <v type="int" >       50 </v>
  <v type="int" >       26 </v>
  <v type="int" >       21 </v>
  <v type="int" >       30 </v>
  <v type="int" >       52 </v>
  <v type="int" >       44 </v>
  <v type="int" >       49 </v>
  <v type="int" >       19 </v>
  <v type="int" >       15 </v>
  <v type="int" >       58 </v>
  <v type="int" >       22 </v>
  <v type="int" >       29 </v>
  <v type="int" >       48 </v>
  <v type="int" >       32 </v>
  <v type="int" >       59 </v>
  <v type="int" >       18 </v>
  <v type="int" >        3 </v>
  <v type="int" >        7 </v>
  <v type="int" >       62 </v>
  <v type="int" >       20 </v>
  <v type="int" >       34 </v>
  <v type="int" >       41 </v>
  <v type="int" >       16 </v>
  <v type="int" >        4 </v>
  <v type="int" >       46 </v>
  <v type="int" >       10 </v>
  <v type="int" >       45 </v>
  <v type="int" >       51 </v>
  <v type="int" >        8 </v>
  <v type="int" >       39 </v>
  <v type="int" >       61 </v>
  <v type="int" >        6 </v>
  <v type="int" >       37 </v>
  <v type="int" >       36 </v>
  <v type="int" >       54 </v>
  <v type="int" >       23 </v>
  <v type="int" >       40 </v>
  <v type="int" >       25 </v>
  <v type="int" >       27 </v>
  <v type="int" >       33 </v>
  <v type="int" >       55 </v>
  <v type="int" >       57 </v>
  <v type="int" >       12 </v>
  <v type="int" >       17 </v>
  <v type="int" >       13 </v>
  <v type="int" >       14 </v>
  <v type="int" >       47 </v>
  <v type="int" >        5 </v>
  <v type="int" >       42 </v>
  <v type="int" >       60 </v>
  <v type="int" >        9 </v>
 </varray>
 <kpoints>
  <generation param="Gamma">
   <v type="int" name="divisions">       1        1        1 </v>
   <v name="usershift">      0.00000000       0.00000000       0.00000000 </v>
   <v name="genvec1">      1.00000000       0.00000000       0.00000000 </v>
   <v name="genvec2">      0.00000000       1.00000000       0.00000000 </v>
   <v name="genvec3">      0.00000000       0.00000000       1.00000000 </v>
   <v name="shift">      0.00000000       0.00000000       0.00000000 </v>
  </generation>
  <varray name="kpointlist" >
   <v>       0.00000000       0.00000000       0.00000000 </v>
  </varray>
  <varray name="weights" >
   <v>       1.00000000 </v>
  </varray>
 </kpoints>
 <parameters>
  <separator name="general" >
   <i type="string" name="SYSTEM">LiF</i>
   <i type="logical" name="LCOMPAT"> F  </i>
  </separator>
  <separator name="electronic" >
   <i type="string" name="PREC">normal</i>
   <i name="ENMAX">    520.00000000</i>
   <i name="ENAUG">    628.94500000</i>
   <i name="EDIFF">      0.00001000</i>
   <i type="int" name="IALGO">    38</i>
   <i type="int" name="IWAVPR">    12</i>
   <i type="int" name="NBANDS">   192</i>
   <i name="NELECT">    314.00000000</i>
   <i type="int" name="TURBO">     0</i>
   <i type="int" name="IRESTART">     0</i>
   <i type="int" name="NREBOOT">     0</i>
   <i type="int" name="NMIN">     0</i>
   <i name="EREF">      0.00000000</i>
   <separator name="electronic smearing" >
    <i type="int" name="ISMEAR">     0</i>
    <i name="SIGMA">      0.10000000</i>
    <i name="KSPACING">      0.50000000</i>
    <i type="logical" name="KGAMMA"> T  </i>
   </separator>
   <separator name="electronic projectors" >
    <i type="logical" name="LREAL"> T  </i>
    <v name="ROPT">     -0.00050000     -0.00050000</v>
    <i type="int" name="LMAXPAW">  -100</i>
    <i type="int" name="LMAXMIX">     2</i>
    <i type="logical" name="NLSPLINE"> F  </i>
   </separator>
   <separator name="electronic startup" >
    <i type="int" name="ISTART">     0</i>
    <i type="int" name="ICHARG">     2</i>
    <i type="int" name="INIWAV">     1</i>
   </separator>
   <separator name="electronic spin" >
    <i type="int" name="ISPIN">     1</i>
    <i type="logical" name="LNONCOLLINEAR"> F  </i>
    <v name="MAGMOM">      1.00000000      1.00000000      1.00000000      1.00000000      1.00000000      1.00000000      1.00000000      1.00000000      1.00000000      1.00000000      1.00000000      1.00000000      1.00000000      1.00000000      1.00000000      1.00000000      1.00000000      1.00000000      1.00000000      1.00000000
      1.00000000      1.00000000      1.00000000      1.00000000      1.00000000      1.00000000      1.00000000      1.00000000      1.00000000      1.00000000      1.00000000      1.00000000      1.00000000      1.00000000      1.00000000      1.00000000      1.00000000      1.00000000      1.00000000      1.00000000
      1.00000000      1.00000000      1.00000000      1.00000000      1.00000000      1.00000000      1.00000000      1.00000000      1.00000000      1.00000000      1.00000000      1.00000000      1.00000000      1.00000000      1.00000000      1.00000000      1.00000000      1.00000000      1.00000000      1.00000000
      1.00000000      1.00000000</v>
    <i name="NUPDOWN">     -1.00000000</i>
    <i type="logical" name="LSORBIT"> F  </i>
    <v name="SAXIS">      0.00000000      0.00000000      1.00000000</v>
    <i type="logical" name="LSPIRAL"> F  </i>
    <v name="QSPIRAL">      0.00000000      0.00000000      0.00000000</v>
    <i type="logical" name="LZEROZ"> F  </i>
   </separator>
   <separator name="electronic exchange-correlation" >
    <i type="logical" name="LASPH"> F  </i>
    <i type="logical" name="LMETAGGA"> F  </i>
   </separator>
   <separator name="electronic convergence" >
    <i type="int" name="NELM">    60</i>
    <i type="int" name="NELMDL">     0</i>
    <i type="int" name="NELMIN">     4</i>
    <i name="ENINI">    520.00000000</i>
    <separator name="electronic convergence detail" >
     <i type="logical" name="LDIAG"> T  </i>
     <i type="logical" name="LSUBROT"> F  </i>
     <i name="WEIMIN">      0.00100000</i>
     <i name="EBREAK">      0.00000001</i>
     <i name="DEPER">      0.30000000</i>
     <i type="int" name="NRMM">     4</i>
     <i name="TIME">      0.40000000</i>
    </separator>
   </separator>
   <separator name="electronic mixer" >
    <i name="AMIX">      0.40000000</i>
    <i name="BMIX">      1.00000000</i>
    <i name="AMIN">      0.10000000</i>
    <i name="AMIX_MAG">      1.60000000</i>
    <i name="BMIX_MAG">      1.00000000</i>
    <separator name="electronic mixer details" >
     <i type="int" name="IMIX">     4</i>
     <i type="logical" name="MIXFIRST"> F  </i>
     <i type="int" name="MAXMIX">   -45</i>
     <i name="WC">    100.00000000</i>
     <i type="int" name="INIMIX">     1</i>
     <i type="int" name="MIXPRE">     1</i>
     <i type="int" name="MREMOVE">     5</i>
    </separator>
   </separator>
   <separator name="electronic dipolcorrection" >
    <i type="logical" name="LDIPOL"> F  </i>
    <i type="logical" name="LMONO"> F  </i>
    <i type="int" name="IDIPOL">     0</i>
    <i name="EPSILON">      1.00000000</i>
    <v name="DIPOL">   -100.00000000   -100.00000000   -100.00000000</v>
    <i name="EFIELD">      0.00000000</i>
   </separator>
  </separator>
  <separator name="grids" >
   <i type="int" name="NGX">    48</i>
   <i type="int" name="NGY">    48</i>
   <i type="int" name="NGZ">    48</i>
   <i type="int" name="NGXF">    96</i>
   <i type="int" name="NGYF">    96</i>
   <i type="int" name="NGZF">    96</i>
   <i type="logical" name="ADDGRID"> T  </i>
  </separator>
  <separator name="ionic" >
   <i type="int" name="NSW">   200</i>
   <i type="int" name="IBRION">     0</i>
   <i type="int" name="MDALGO">     2</i>
   <i type="int" name="ISIF">     2</i>
   <i name="PSTRESS">      0.00000000</i>
   <i name="EDIFFG">      0.00010000</i>
   <i type="int" name="NFREE">     0</i>
   <i name="POTIM">      1.00000000</i>
   <i name="SMASS">      1.00000000</i>
   <i name="SCALEE">      1.00000000</i>
  </separator>
  <separator name="ionic md" >
   <i name="TEBEG">   1600.00000000</i>
   <i name="TEEND">   1600.00000000</i>
   <i type="int" name="NBLOCK">     1</i>
   <i type="int" name="KBLOCK">   200</i>
   <i type="int" name="NPACO">   256</i>
   <i name="APACO">     16.00000000</i>
  </separator>
  <separator name="symmetry" >
   <i type="int" name="ISYM">     2</i>
   <i name="SYMPREC">      0.00001000</i>
  </separator>
  <separator name="dos" >
   <i type="int" name="LORBIT">     0</i>
   <v name="RWIGS">     -1.00000000     -1.00000000</v>
   <i type="int" name="NEDOS">   301</i>
   <i name="EMIN">     10.00000000</i>
   <i name="EMAX">    -10.00000000</i>
   <i name="EFERMI">      0.00000000</i>
  </separator>
  <separator name="writing" >
   <i type="int" name="NWRITE">     0</i>
   <i type="logical" name="LWAVE"> F  </i>
   <i type="logical" name="LDOWNSAMPLE"> F  </i>
   <i type="logical" name="LCHARG"> F  </i>
   <i type="logical" name="LPARD"> F  </i>
   <i type="logical" name="LVTOT"> F  </i>
   <i type="logical" name="LVHAR"> F  </i>
   <i type="logical" name="LELF"> F  </i>
   <i type="logical" name="LOPTICS"> F  </i>
   <v name="STM">      0.00000000      0.00000000      0.00000000      0.00000000      0.00000000      0.00000000      0.00000000</v>
  </separator>
  <separator name="performance" >
   <i type="int" name="NPAR">     4</i>
   <i type="int" name="NSIM">     4</i>
   <i type="int" name="NBLK">    -1</i>
   <i type="logical" name="LPLANE"> T  </i>
   <i type="logical" name="LSCALAPACK"> T  </i>
   <i type="logical" name="LSCAAWARE"> F  </i>
   <i type="logical" name="LSCALU"> F  </i>
   <i type="logical" name="LASYNC"> F  </i>
   <i type="logical" name="LORBITALREAL"> F  </i>
  </separator>
  <separator name="miscellaneous" >
   <i type="int" name="IDIOT">     3</i>
   <i type="int" name="ISPECIAL">     0</i>
   <i type="logical" name="LMUSIC"> F  </i>
   <v name="POMASS">     18.99800000      7.01000000</v>
   <v name="DARWINR">      0.00000000      0.00000000</v>
   <v name="DARWINV">      1.00000000      1.00000000</v>
   <i type="logical" name="LCORR"> T  </i>
  </separator>
  <i type="logical" name="GGA_COMPAT"> T  </i>
  <i type="logical" name="LBERRY"> F  </i>
  <i type="int" name="ICORELEVEL">     0</i>
  <i type="logical" name="LDAU"> F  </i>
  <i type="int" name="I_CONSTRAINED_M">     0</i>
  <separator name="electronic exchange-correlation" >
   <i type="string" name="GGA">--</i>
   <i type="int" name="VOSKOWN">     0</i>
   <i type="logical" name="LHFCALC"> F  </i>
   <i type="string" name="PRECFOCK"></i>
   <i type="logical" name="LSYMGRAD"> F  </i>
   <i type="logical" name="LHFONE"> F  </i>
   <i type="logical" name="LRHFCALC"> F  </i>
   <i type="logical" name="LTHOMAS"> F  </i>
   <i type="logical" name="LMODELHF"> F  </i>
   <i name="ENCUT4O">     -1.00000000</i>
   <i type="int" name="EXXOEP">     0</i>
   <i type="int" name="FOURORBIT">     0</i>
   <i name="AEXX">      0.00000000</i>
   <i name="HFALPHA">      0.00000000</i>
   <i name="MCALPHA">      0.00000000</i>
   <i name="ALDAX">      1.00000000</i>
   <i name="AGGAX">      1.00000000</i>
   <i name="ALDAC">      1.00000000</i>
   <i name="AGGAC">      1.00000000</i>
   <i type="int" name="NKREDX">     1</i>
   <i type="int" name="NKREDY">     1</i>
   <i type="int" name="NKREDZ">     1</i>
   <i type="logical" name="SHIFTRED"> F  </i>
   <i type="logical" name="ODDONLY"> F  </i>
   <i type="logical" name="EVENONLY"> F  </i>
   <i type="int" name="LMAXFOCK">     0</i>
   <i type="int" name="NMAXFOCKAE">     0</i>
   <i type="logical" name="LFOCKAEDFT"> F  </i>
   <i name="HFSCREEN">      0.00000000</i>
   <i name="HFSCREENC">      0.00000000</i>
   <i type="int" name="NBANDSGWLOW">     0</i>
  </separator>
  <separator name="vdW DFT" >
   <i type="logical" name="LUSE_VDW"> F  </i>
   <i name="Zab_VDW">     -0.84910000</i>
   <i name="PARAM1">      0.12340000</i>
   <i name="PARAM2">      1.00000000</i>
   <i name="PARAM3">      0.00000000</i>
  </separator>
  <separator name="model GW" >
   <i type="int" name="MODEL_GW">     0</i>
   <i name="MODEL_EPS0">      5.18322317</i>
   <i name="MODEL_ALPHA">      1.00000000</i>
  </separator>
  <separator name="linear response parameters" >
   <i type="logical" name="LEPSILON"> F  </i>
   <i type="logical" name="LRPA"> F  </i>
   <i type="logical" name="LNABLA"> F  </i>
   <i type="logical" name="LVEL"> F  </i>
   <i type="int" name="KINTER">     0</i>
   <i name="CSHIFT">      0.10000000</i>
   <i name="OMEGAMAX">     -1.00000000</i>
   <i name="DEG_THRESHOLD">      0.00200000</i>
   <i name="RTIME">     -0.10000000</i>
   <i name="WPLASMAI">      0.00000000</i>
   <v name="DFIELD">      0.00000000      0.00000000      0.00000000</v>
   <v name="WPLASMA">      0.00000000      0.00000000      0.00000000      0.00000000      0.00000000      0.00000000      0.00000000      0.00000000      0.00000000</v>
  </separator>
  <separator name="orbital magnetization" >
   <i type="logical" name="NUCIND"> F  </i>
   <v name="MAGPOS">      0.00000000      0.00000000      0.00000000</v>
   <i type="logical" name="LNICSALL"> T  </i>
   <i type="logical" name="ORBITALMAG"> F  </i>
   <i type="logical" name="LMAGBLOCH"> F  </i>
   <i type="logical" name="LCHIMAG"> F  </i>
   <i type="logical" name="LGAUGE"> T  </i>
   <i type="int" name="MAGATOM">     0</i>
   <v name="MAGDIPOL">      0.00000000      0.00000000      0.00000000</v>
   <v name="AVECCONST">      0.00000000      0.00000000      0.00000000</v>
  </separator>
  <separator name="response functions" >
   <i type="logical" name="LADDER"> F  </i>
   <i type="logical" name="LRPAFORCE"> F  </i>
   <i type="logical" name="LFXC"> F  </i>
   <i type="logical" name="LHARTREE"> T  </i>
   <i type="int" name="IBSE">     0</i>
   <v type="int" name="KPOINT">    -1     0     0     0</v>
   <i type="logical" name="LTCTE"> F  </i>
   <i type="logical" name="LTETE"> F  </i>
   <i type="logical" name="LTRIPLET"> F  </i>
   <i type="logical" name="LFXCEPS"> F  </i>
   <i type="logical" name="LFXHEG"> F  </i>
   <i type="int" name="NATURALO">     2</i>
   <i type="logical" name="L2ORDER"> F  </i>
   <i type="logical" name="LMP2LT"> F  </i>
   <i type="logical" name="LUSEW"> F  </i>
   <i name="ENCUTGW">     -2.00000000</i>
   <i name="ENCUTGWSOFT">     -2.00000000</i>
   <i name="ENCUTLF">     -1.00000000</i>
   <i type="int" name="LMAXMP2">    -1</i>
   <i name="SCISSOR">      0.00000000</i>
   <i type="int" name="NOMEGA">     0</i>
   <i type="int" name="NOMEGAR">     0</i>
   <i type="int" name="NBANDSGW">    -1</i>
   <i type="int" name="NBANDSO">    -1</i>
   <i type="int" name="NBANDSV">    -1</i>
   <i type="int" name="NELM">     1</i>
   <i type="int" name="NELMHF">     1</i>
   <i type="int" name="DIM">     3</i>
   <i type="int" name="ANTIRES">     0</i>
   <i name="OMEGAMAX">    -30.00000000</i>
   <i name="OMEGAMIN">    -30.00000000</i>
   <i name="OMEGATL">   -200.00000000</i>
   <i type="int" name="OMEGAGRID">   140</i>
   <i name="CSHIFT">     -0.10000000</i>
   <i type="logical" name="SELFENERGY"> F  </i>
   <i type="logical" name="LSPECTRAL"> F  </i>
   <i type="logical" name="LSPECTRALGW"> F  </i>
   <i type="logical" name="LSINGLES"> F  </i>
   <i type="logical" name="LFERMIGW"> F  </i>
   <i type="logical" name="ODDONLYGW"> F  </i>
   <i type="logical" name="EVENONLYGW"> F  </i>
   <i type="int" name="NKREDLFX">     1</i>
   <i type="int" name="NKREDLFY">     1</i>
   <i type="int" name="NKREDLFZ">     1</i>
   <i type="int" name="MAXMEM">  2800</i>
   <i type="int" name="TELESCOPE">     0</i>
   <i type="int" name="TAUPAR">     1</i>
   <i type="int" name="OMEGAPAR">    -1</i>
   <i name="LAMBDA">      1.00000000</i>
  </separator>
  <separator name="External order field" >
   <i name="OFIELD_KAPPA">      0.00000000</i>
   <v name="OFIELD_K">      0.00000000      0.00000000      0.00000000</v>
   <i name="OFIELD_Q6_NEAR">      0.00000000</i>
   <i name="OFIELD_Q6_FAR">      0.00000000</i>
   <i name="OFIELD_A">      0.00000000</i>
  </separator>
 </parameters>
 <atominfo>
  <atoms>      62 </atoms>
  <types>       2 </types>
  <array name="atoms" >
   <dimension dim="1">ion</dimension>
   <field type="string">element</field>
   <field type="int">atomtype</field>
   <set>
    <rc><c>F </c><c>   1</c></rc>
    <rc><c>F </c><c>   1</c></rc>
    <rc><c>F </c><c>   1</c></rc>
    <rc><c>F </c><c>   1</c></rc>
    <rc><c>F </c><c>   1</c></rc>
    <rc><c>F </c><c>   1</c></rc>
    <rc><c>F </c><c>   1</c></rc>
    <rc><c>F </c><c>   1</c></rc>
    <rc><c>F </c><c>   1</c></rc>
    <rc><c>F </c><c>   1</c></rc>
    <rc><c>F </c><c>   1</c></rc>
    <rc><c>F </c><c>   1</c></rc>
    <rc><c>F </c><c>   1</c></rc>
    <rc><c>F </c><c>   1</c></rc>
    <rc><c>F </c><c>   1</c></rc>
    <rc><c>F </c><c>   1</c></rc>
    <rc><c>F </c><c>   1</c></rc>
    <rc><c>F </c><c>   1</c></rc>
    <rc><c>F </c><c>   1</c></rc>
    <rc><c>F </c><c>   1</c></rc>
    <rc><c>F </c><c>   1</c></rc>
    <rc><c>F </c><c>   1</c></rc>
    <rc><c>F </c><c>   1</c></rc>
    <rc><c>F </c><c>   1</c></rc>
    <rc><c>F </c><c>   1</c></rc>
    <rc><c>F </c><c>   1</c></rc>
    <rc><c>F </c><c>   1</c></rc>
    <rc><c>F </c><c>   1</c></rc>
    <rc><c>F </c><c>   1</c></rc>
    <rc><c>F </c><c>   1</c></rc>
    <rc><c>F </c><c>   1</c></rc>
    <rc><c>F </c><c>   1</c></rc>
    <rc><c>Li</c><c>   2</c></rc>
    <rc><c>Li</c><c>   2</c></rc>
    <rc><c>Li</c><c>   2</c></rc>
    <rc><c>Li</c><c>   2</c></rc>
    <rc><c>Li</c><c>   2</c></rc>
    <rc><c>Li</c><c>   2</c></rc>
    <rc><c>Li</c><c>   2</c></rc>
    <rc><c>Li</c><c>   2</c></rc>
    <rc><c>Li</c><c>   2</c></rc>
    <rc><c>Li</c><c>   2</c></rc>
    <rc><c>Li</c><c>   2</c></rc>
    <rc><c>Li</c><c>   2</c></rc>
    <rc><c>Li</c><c>   2</c></rc>
    <rc><c>Li</c><c>   2</c></rc>
    <rc><c>Li</c><c>   2</c></rc>
    <rc><c>Li</c><c>   2</c></rc>
    <rc><c>Li</c><c>   2</c></rc>
    <rc><c>Li</c><c>   2</c></rc>
    <rc><c>Li</c><c>   2</c></rc>
    <rc><c>Li</c><c>   2</c></rc>
    <rc><c>Li</c><c>   2</c></rc>
    <rc><c>Li</c><c>   2</c></rc>
    <rc><c>Li</c><c>   2</c></rc>
    <rc><c>Li</c><c>   2</c></rc>
    <rc><c>Li</c><c>   2</c></rc>
    <rc><c>Li</c><c>   2</c></rc>
    <rc><c>Li</c><c>   2</c></rc>
    <rc><c>Li</c><c>   2</c></rc>
    <rc><c>Li</c><c>   2</c></rc>
    <rc><c>Li</c><c>   2</c></rc>
   </set>
  </array>
  <array name="atomtypes" >
   <dimension dim="1">type</dimension>
   <field type="int">atomspertype</field>
   <field type="string">element</field>
   <field>mass</field>
   <field>valence</field>
   <field type="string">pseudopotential</field>
   <set>
    <rc><c>  32</c><c>F </c><c>     18.99800000</c><c>      7.00000000</c><c>  PAW_PBE F 08Apr2002                   </c></rc>
    <rc><c>  30</c><c>Li</c><c>      7.01000000</c><c>      3.00000000</c><c>  PAW_PBE Li_sv 10Sep2004               </c></rc>
   </set>
  </array>
 </atominfo>
 <structure name="initialpos" >
  <crystal>
   <varray name="basis" >
    <v>       8.13341700       0.00000000       0.00000000 </v>
    <v>       0.00000000       8.11490900       0.00000000 </v>
    <v>       0.00000000       0.00000000       8.11490900 </v>
   </varray>
   <i name="volume">    535.59972730 </i>
   <varray name="rec_basis" >
    <v>       0.12294955       0.00000000       0.00000000 </v>
    <v>       0.00000000       0.12322997       0.00000000 </v>
    <v>       0.00000000       0.00000000       0.12322997 </v>
   </varray>
  </crystal>
  <varray name="positions" >
   <v>       0.04582475       0.84718600       0.42179062 </v>
   <v>       0.15129479       0.56627098       0.54391851 </v>
   <v>       0.32065763       0.82038426       0.81188002 </v>
   <v>       0.92327615       0.45524412       0.71033398 </v>
   <v>       0.48236181       0.48520290       0.83161868 </v>
   <v>       0.76033492       0.00828638       0.99228314 </v>
   <v>       0.75352965       0.21318236       0.30153936 </v>
   <v>       0.52186861       0.02840061       0.27362691 </v>
   <v>       0.49875219       0.28892295       0.07945556 </v>
   <v>       0.01947120       0.67651039       0.90988224 </v>
   <v>       0.74330474       0.97431215       0.47438028 </v>
   <v>       0.52117171       0.08431345       0.76767516 </v>
   <v>       0.51070893       0.30264997       0.48620971 </v>
   <v>       0.75021302       0.46840466       0.95726163 </v>
   <v>       0.71472516       0.68049831       0.16550228 </v>
   <v>       0.43586088       0.58265009       0.25688099 </v>
   <v>       0.56933553       0.80361703       0.98440716 </v>
   <v>       0.73873997       0.49053256       0.44178568 </v>
   <v>       0.77070936       0.75304751       0.74446633 </v>
   <v>       0.83021737       0.09135208       0.78196976 </v>
   <v>       0.96731054       0.51875390       0.26819984 </v>
   <v>       0.46239818       0.72221923       0.57875421 </v>
   <v>       0.25982263       0.52364669       0.01997187 </v>
   <v>       0.26632668       0.77360095       0.27007464 </v>
   <v>       0.99530247       0.25789870       0.98899126 </v>
   <v>       0.30498238       0.05397046       0.50252289 </v>
   <v>       0.25595084       0.29325805       0.76133037 </v>
   <v>       0.14615259       0.93612618       0.69146278 </v>
   <v>       0.20903272       0.25181241       0.26379297 </v>
   <v>       0.00951608       0.20277469       0.53350015 </v>
   <v>       0.01174485       0.96340818       0.14565419 </v>
   <v>       0.25462113       0.04811710       0.05514940 </v>
   <v>       0.28136107       0.27630602       0.05230102 </v>
   <v>       0.43680779       0.56234510       0.46230513 </v>
   <v>       0.95953506       0.98881156       0.59613850 </v>
   <v>       0.77735242       0.68977035       0.96462709 </v>
   <v>       0.75203340       0.44648263       0.20323736 </v>
   <v>       0.20842703       0.79937409       0.55266101 </v>
   <v>       0.73802774       0.26930245       0.54481293 </v>
   <v>       0.67016838       0.56402169       0.73223556 </v>
   <v>       0.50574846       0.79005411       0.26699195 </v>
   <v>       0.50373324       0.49383715       0.02689798 </v>
   <v>       0.22084430       0.97873122       0.27507796 </v>
   <v>       0.00586692       0.20795145       0.20010831 </v>
   <v>       0.02998251       0.25943578       0.74887620 </v>
   <v>       0.65340671       0.93783706       0.73274700 </v>
   <v>       0.54758191       0.28105255       0.30583972 </v>
   <v>       0.20623443       0.80332814       0.98668961 </v>
   <v>       0.00801615       0.41603901       0.46064761 </v>
   <v>       0.98793597       0.68417622       0.71628108 </v>
   <v>       0.28186943       0.54101397       0.77898765 </v>
   <v>       0.21432776       0.52423095       0.23927348 </v>
   <v>       0.81759239       0.70597285       0.39818603 </v>
   <v>       0.03847684       0.48012047       0.00612204 </v>
   <v>       0.49983866       0.02249574       0.03419288 </v>
   <v>       0.80798681       0.00876199       0.25210263 </v>
   <v>       0.77461193       0.23304180       0.00604648 </v>
   <v>       0.25013481       0.24852351       0.48263552 </v>
   <v>       0.48648209       0.99289538       0.48161406 </v>
   <v>       0.49760398       0.30436206       0.71557353 </v>
   <v>       0.31793465       0.09100585       0.81698404 </v>
   <v>       0.96406016       0.94295175       0.95321849 </v>
  </varray>
  <varray name="velocities" >
   <v>       0.00049234       0.00036987       0.00199179 </v>
   <v>      -0.00068488      -0.00134551      -0.00158191 </v>
   <v>      -0.00167627       0.00089596      -0.00098707 </v>
   <v>       0.00052418       0.00034290       0.00119317 </v>
   <v>       0.00059438      -0.00130720       0.00131234 </v>
   <v>       0.00075824       0.00013891      -0.00168268 </v>
   <v>      -0.00070225      -0.00054669       0.00099588 </v>
   <v>      -0.00061465       0.00158558      -0.00067936 </v>
   <v>      -0.00072864      -0.00031152      -0.00066930 </v>
   <v>       0.00153819      -0.00059434      -0.00165793 </v>
   <v>      -0.00028339       0.00089945       0.00035183 </v>
   <v>      -0.00042200       0.00022820      -0.00064199 </v>
   <v>      -0.00053636      -0.00246157      -0.00199709 </v>
   <v>       0.00113390       0.00230041       0.00097007 </v>
   <v>      -0.00092217       0.00046075      -0.00034221 </v>
   <v>      -0.00057728      -0.00004913       0.00040723 </v>
   <v>       0.00205509       0.00096062      -0.00054072 </v>
   <v>       0.00067342       0.00284077       0.00119968 </v>
   <v>      -0.00143604       0.00097322       0.00088613 </v>
   <v>       0.00072665       0.00030036      -0.00015207 </v>
   <v>       0.00037273      -0.00123188       0.00090888 </v>
   <v>       0.00186879      -0.00182573       0.00061660 </v>
   <v>      -0.00010913      -0.00004137       0.00041513 </v>
   <v>      -0.00075947      -0.00127587       0.00030356 </v>
   <v>      -0.00162831      -0.00212103       0.00098075 </v>
   <v>      -0.00055973      -0.00017517       0.00034469 </v>
   <v>      -0.00038122       0.00036365       0.00078110 </v>
   <v>      -0.00018524      -0.00018664      -0.00047000 </v>
   <v>       0.00064651      -0.00219011      -0.00055737 </v>
   <v>       0.00312014       0.00106295       0.00121752 </v>
   <v>       0.00015096       0.00042004      -0.00089336 </v>
   <v>      -0.00161877      -0.00082653       0.00032399 </v>
   <v>      -0.00055980       0.00104750      -0.00052063 </v>
   <v>       0.00032400       0.00121579       0.00011882 </v>
   <v>       0.00098822       0.00018352       0.00035213 </v>
   <v>       0.00116617      -0.00057527      -0.00059255 </v>
   <v>      -0.00036076       0.00097019      -0.00043644 </v>
   <v>      -0.00032451       0.00092240       0.00001630 </v>
   <v>      -0.00015591      -0.00021826      -0.00174140 </v>
   <v>       0.00037576       0.00003419       0.00144617 </v>
   <v>      -0.00059738       0.00025246      -0.00076903 </v>
   <v>      -0.00043609      -0.00055235      -0.00061250 </v>
   <v>      -0.00128184      -0.00063327       0.00002549 </v>
   <v>       0.00104242      -0.00055628      -0.00089064 </v>
   <v>       0.00102979       0.00001956      -0.00068295 </v>
   <v>      -0.00100162       0.00077900      -0.00140226 </v>
   <v>      -0.00039684       0.00014379      -0.00015876 </v>
   <v>      -0.00013338      -0.00058912       0.00007486 </v>
   <v>       0.00068061       0.00027123       0.00086695 </v>
   <v>      -0.00038786      -0.00004962       0.00038189 </v>
   <v>      -0.00063114      -0.00076333      -0.00014830 </v>
   <v>      -0.00138474      -0.00075353      -0.00051690 </v>
   <v>      -0.00153386       0.00006451       0.00033888 </v>
   <v>       0.00059357       0.00019517      -0.00007552 </v>
   <v>       0.00078482       0.00112613      -0.00004889 </v>
   <v>      -0.00051662       0.00128456      -0.00062764 </v>
   <v>      -0.00054722       0.00119093      -0.00026421 </v>
   <v>      -0.00000117      -0.00036698      -0.00063203 </v>
   <v>       0.00054235      -0.00016134      -0.00000069 </v>
   <v>      -0.00048635       0.00033157      -0.00095440 </v>
   <v>       0.00126283       0.00078042       0.00076084 </v>
   <v>      -0.00030206       0.00076612       0.00033198 </v>
  </varray>
 </structure>
 <calculation>
  <scstep>
   <time name="dav">    0.24    0.24</time>
   <time name="total">    0.29    0.30</time>
   <energy>
    <i name="alphaZ">    605.65518664 </i>
    <i name="ewald"> -16698.56702877 </i>
    <i name="hartreedc">  -7462.55597250 </i>
    <i name="XCdc">   1568.75697149 </i>
    <i name="pawpsdc">  19647.49871307 </i>
    <i name="pawaedc"> -20272.91247572 </i>
    <i name="eentropy">     -0.05479242 </i>
    <i name="bandstr">  -1028.64929248 </i>
    <i name="atom">  27190.87089379 </i>
    <i name="e_fr_energy">   3550.04220310 </i>
    <i name="e_wo_entrp">   3550.09699552 </i>
    <i name="e_0_energy">   3550.06959931 </i>
   </energy>
  </scstep>
  <scstep>
   <time name="dav">    0.25    0.25</time>
   <time name="total">    0.25    0.25</time>
   <energy>
    <i name="e_fr_energy">    112.34335915 </i>
    <i name="e_wo_entrp">    112.34335915 </i>
    <i name="e_0_energy">    112.34335915 </i>
   </energy>
  </scstep>
  <scstep>
   <time name="dav">    0.28    0.28</time>
   <time name="total">    0.28    0.28</time>
   <energy>
    <i name="e_fr_energy">   -244.03571099 </i>
    <i name="e_wo_entrp">   -244.03556861 </i>
    <i name="e_0_energy">   -244.03563980 </i>
   </energy>
  </scstep>
  <scstep>
   <time name="dav">    0.40    0.40</time>
   <time name="total">    0.40    0.40</time>
   <energy>
    <i name="e_fr_energy">   -287.86981288 </i>
    <i name="e_wo_entrp">   -287.86965441 </i>
    <i name="e_0_energy">   -287.86973364 </i>
   </energy>
  </scstep>
  <scstep>
   <time name="dav">    0.30    0.31</time>
   <time name="total">    0.33    0.33</time>
   <energy>
    <i name="e_fr_energy">   -293.58631427 </i>
    <i name="e_wo_entrp">   -293.58615364 </i>
    <i name="e_0_energy">   -293.58623395 </i>
   </energy>
  </scstep>
  <scstep>
   <time name="dav">    0.25    0.25</time>
   <time name="total">    0.31    0.31</time>
   <energy>
    <i name="e_fr_energy">   -275.18811798 </i>
    <i name="e_wo_entrp">   -275.17317849 </i>
    <i name="e_0_energy">   -275.18064824 </i>
   </energy>
  </scstep>
  <scstep>
   <time name="dav">    0.30    0.30</time>
   <time name="total">    0.36    0.36</time>
   <energy>
    <i name="e_fr_energy">   -274.62656123 </i>
    <i name="e_wo_entrp">   -274.62211959 </i>
    <i name="e_0_energy">   -274.62434041 </i>
   </energy>
  </scstep>
  <scstep>
   <time name="dav">    0.28    0.28</time>
   <time name="total">    0.34    0.34</time>
   <energy>
    <i name="e_fr_energy">   -274.16034655 </i>
    <i name="e_wo_entrp">   -274.16034219 </i>
    <i name="e_0_energy">   -274.16034437 </i>
   </energy>
  </scstep>
  <scstep>
   <time name="dav">    0.30    0.30</time>
   <time name="total">    0.36    0.36</time>
   <energy>
    <i name="e_fr_energy">   -272.28310316 </i>
    <i name="e_wo_entrp">   -272.24429468 </i>
    <i name="e_0_energy">   -272.26369892 </i>
   </energy>
  </scstep>
  <scstep>
   <time name="dav">    0.26    0.26</time>
   <time name="total">    0.32    0.32</time>
   <energy>
    <i name="e_fr_energy">   -272.52793402 </i>
    <i name="e_wo_entrp">   -272.43223183 </i>
    <i name="e_0_energy">   -272.48008292 </i>
   </energy>
  </scstep>
  <scstep>
   <time name="dav">    0.27    0.27</time>
   <time name="total">    0.33    0.33</time>
   <energy>
    <i name="e_fr_energy">   -274.20552303 </i>
    <i name="e_wo_entrp">   -274.20552303 </i>
    <i name="e_0_energy">   -274.20552303 </i>
   </energy>
  </scstep>
  <scstep>
   <time name="dav">    0.29    0.29</time>
   <time name="total">    0.35    0.35</time>
   <energy>
    <i name="e_fr_energy">   -272.49246985 </i>
    <i name="e_wo_entrp">   -272.48342617 </i>
    <i name="e_0_energy">   -272.48794801 </i>
   </energy>
  </scstep>
  <scstep>
   <time name="dav">    0.25    0.25</time>
   <time name="total">    0.31    0.31</time>
   <energy>
    <i name="e_fr_energy">   -272.30143246 </i>
    <i name="e_wo_entrp">   -272.24080218 </i>
    <i name="e_0_energy">   -272.27111732 </i>
   </energy>
  </scstep>
  <scstep>
   <time name="dav">    0.25    0.25</time>
   <time name="total">    0.31    0.31</time>
   <energy>
    <i name="e_fr_energy">   -272.30733454 </i>
    <i name="e_wo_entrp">   -272.22647641 </i>
    <i name="e_0_energy">   -272.26690547 </i>
   </energy>
  </scstep>
  <scstep>
   <time name="dav">    0.27    0.27</time>
   <time name="total">    0.33    0.33</time>
   <energy>
    <i name="e_fr_energy">   -272.28252700 </i>
    <i name="e_wo_entrp">   -272.21855104 </i>
    <i name="e_0_energy">   -272.25053902 </i>
   </energy>
  </scstep>
  <scstep>
   <time name="dav">    0.26    0.26</time>
   <time name="total">    0.32    0.32</time>
   <energy>
    <i name="e_fr_energy">   -272.25612724 </i>
    <i name="e_wo_entrp">   -272.17672137 </i>
    <i name="e_0_energy">   -272.21642430 </i>
   </energy>
  </scstep>
  <scstep>
   <time name="dav">    0.26    0.26</time>
   <time name="total">    0.32    0.32</time>
   <energy>
    <i name="e_fr_energy">   -272.27011686 </i>
    <i name="e_wo_entrp">   -272.18554200 </i>
    <i name="e_0_energy">   -272.22782943 </i>
   </energy>
  </scstep>
  <scstep>
   <time name="dav">    0.29    0.30</time>
   <time name="total">    0.35    0.36</time>
   <energy>
    <i name="e_fr_energy">   -272.27986203 </i>
    <i name="e_wo_entrp">   -272.21886492 </i>
    <i name="e_0_energy">   -272.24936347 </i>
   </energy>
  </scstep>
  <scstep>
   <time name="dav">    0.24    0.24</time>
   <time name="total">    0.30    0.30</time>
   <energy>
    <i name="e_fr_energy">   -272.26579235 </i>
    <i name="e_wo_entrp">   -272.18902734 </i>
    <i name="e_0_energy">   -272.22740985 </i>
   </energy>
  </scstep>
  <scstep>
   <time name="dav">    0.26    0.26</time>
   <time name="total">    0.32    0.32</time>
   <energy>
    <i name="e_fr_energy">   -272.25892527 </i>
    <i name="e_wo_entrp">   -272.17762015 </i>
    <i name="e_0_energy">   -272.21827271 </i>
   </energy>
  </scstep>
  <scstep>
   <time name="dav">    0.26    0.26</time>
   <time name="total">    0.32    0.32</time>
   <energy>
    <i name="e_fr_energy">   -272.26025325 </i>
    <i name="e_wo_entrp">   -272.17704527 </i>
    <i name="e_0_energy">   -272.21864926 </i>
   </energy>
  </scstep>
  <scstep>
   <time name="dav">    0.24    0.25</time>
   <time name="total">    0.30    0.31</time>
   <energy>
    <i name="e_fr_energy">   -272.26029782 </i>
    <i name="e_wo_entrp">   -272.17776651 </i>
    <i name="e_0_energy">   -272.21903217 </i>
   </energy>
  </scstep>
  <scstep>
   <time name="dav">    0.23    0.24</time>
   <time name="total">    0.29    0.30</time>
   <energy>
    <i name="e_fr_energy">   -272.26045413 </i>
    <i name="e_wo_entrp">   -272.17607101 </i>
    <i name="e_0_energy">   -272.21826257 </i>
   </energy>
  </scstep>
  <scstep>
   <time name="dav">    0.22    0.22</time>
   <time name="total">    0.28    0.28</time>
   <energy>
    <i name="e_fr_energy">   -272.26034624 </i>
    <i name="e_wo_entrp">   -272.17787819 </i>
    <i name="e_0_energy">   -272.21911222 </i>
   </energy>
  </scstep>
  <scstep>
   <time name="dav">    0.19    0.19</time>
   <time name="total">    0.25    0.25</time>
   <energy>
    <i name="e_fr_energy">   -272.26036099 </i>
    <i name="e_wo_entrp">   -272.17760350 </i>
    <i name="e_0_energy">   -272.21898224 </i>
   </energy>
  </scstep>
  <scstep>
   <time name="dav">    0.15    0.15</time>
   <time name="total">    0.19    0.19</time>
   <energy>
    <i name="alphaZ">    605.65518664 </i>
    <i name="ewald"> -16698.56702877 </i>
    <i name="hartreedc">  -8006.22783743 </i>
    <i name="XCdc">   1600.32208031 </i>
    <i name="pawpsdc">  22823.76334214 </i>
    <i name="pawaedc"> -23463.84623495 </i>
    <i name="eentropy">     -0.08308597 </i>
    <i name="bandstr">  -4324.14767329 </i>
    <i name="atom">  27190.87089379 </i>
    <i name="e_fr_energy">   -272.26035752 </i>
    <i name="e_wo_entrp">   -272.17727155 </i>
    <i name="e_0_energy">   -272.21881454 </i>
   </energy>
  </scstep>
  <structure>
   <crystal>
    <varray name="basis" >
     <v>       8.13341700       0.00000000       0.00000000 </v>
     <v>       0.00000000       8.11490900       0.00000000 </v>
     <v>       0.00000000       0.00000000       8.11490900 </v>
    </varray>
    <i name="volume">    535.59972730 </i>
    <varray name="rec_basis" >
     <v>       0.12294955       0.00000000       0.00000000 </v>
     <v>       0.00000000       0.12322997       0.00000000 </v>
     <v>       0.00000000       0.00000000       0.12322997 </v>
    </varray>
   </crystal>
   <varray name="positions" >
    <v>       0.04582475       0.84718600       0.42179062 </v>
    <v>       0.15129479       0.56627098       0.54391851 </v>
    <v>       0.32065763       0.82038426       0.81188002 </v>
    <v>       0.92327615       0.45524412       0.71033398 </v>
    <v>       0.48236181       0.48520290       0.83161868 </v>
    <v>       0.76033492       0.00828638       0.99228314 </v>
    <v>       0.75352965       0.21318236       0.30153936 </v>
    <v>       0.52186861       0.02840061       0.27362691 </v>
    <v>       0.49875219       0.28892295       0.07945556 </v>
    <v>       0.01947120       0.67651039       0.90988224 </v>
    <v>       0.74330474       0.97431215       0.47438028 </v>
    <v>       0.52117171       0.08431345       0.76767516 </v>
    <v>       0.51070893       0.30264997       0.48620971 </v>
    <v>       0.75021302       0.46840466       0.95726163 </v>
    <v>       0.71472516       0.68049831       0.16550228 </v>
    <v>       0.43586088       0.58265009       0.25688099 </v>
    <v>       0.56933553       0.80361703       0.98440716 </v>
    <v>       0.73873997       0.49053256       0.44178568 </v>
    <v>       0.77070936       0.75304751       0.74446633 </v>
    <v>       0.83021737       0.09135208       0.78196976 </v>
    <v>       0.96731054       0.51875390       0.26819984 </v>
    <v>       0.46239818       0.72221923       0.57875421 </v>
    <v>       0.25982263       0.52364669       0.01997187 </v>
    <v>       0.26632668       0.77360095       0.27007464 </v>
    <v>       0.99530247       0.25789870       0.98899126 </v>
    <v>       0.30498238       0.05397046       0.50252289 </v>
    <v>       0.25595084       0.29325805       0.76133037 </v>
    <v>       0.14615259       0.93612618       0.69146278 </v>
    <v>       0.20903272       0.25181241       0.26379297 </v>
    <v>       0.00951608       0.20277469       0.53350015 </v>
    <v>       0.01174485       0.96340818       0.14565419 </v>
    <v>       0.25462113       0.04811710       0.05514940 </v>
    <v>       0.28136107       0.27630602       0.05230102 </v>
    <v>       0.43680779       0.56234510       0.46230513 </v>
    <v>       0.95953506       0.98881156       0.59613850 </v>
    <v>       0.77735242       0.68977035       0.96462709 </v>
    <v>       0.75203340       0.44648263       0.20323736 </v>
    <v>       0.20842703       0.79937409       0.55266101 </v>
    <v>       0.73802774       0.26930245       0.54481293 </v>
    <v>       0.67016838       0.56402169       0.73223556 </v>
    <v>       0.50574846       0.79005411       0.26699195 </v>
    <v>       0.50373324       0.49383715       0.02689798 </v>
    <v>       0.22084430       0.97873122       0.27507796 </v>
    <v>       0.00586692       0.20795145       0.20010831 </v>
    <v>       0.02998251       0.25943578       0.74887620 </v>
    <v>       0.65340671       0.93783706       0.73274700 </v>
    <v>       0.54758191       0.28105255       0.30583972 </v>
    <v>       0.20623443       0.80332814       0.98668961 </v>
    <v>       0.00801615       0.41603901       0.46064761 </v>
    <v>       0.98793597       0.68417622       0.71628108 </v>
    <v>       0.28186943       0.54101397       0.77898765 </v>
    <v>       0.21432776       0.52423095       0.23927348 </v>
    <v>       0.81759239       0.70597285       0.39818603 </v>
    <v>       0.03847684       0.48012047       0.00612204 </v>
    <v>       0.49983866       0.02249574       0.03419288 </v>
    <v>       0.80798681       0.00876199       0.25210263 </v>
    <v>       0.77461193       0.23304180       0.00604648 </v>
    <v>       0.25013481       0.24852351       0.48263552 </v>
    <v>       0.48648209       0.99289538       0.48161406 </v>
    <v>       0.49760398       0.30436206       0.71557353 </v>
    <v>       0.31793465       0.09100585       0.81698404 </v>
    <v>       0.96406016       0.94295175       0.95321849 </v>
   </varray>
  </structure>
  <varray name="forces" >
   <v>      -1.73089926       0.06807729       0.57776845 </v>
   <v>       1.37754056      -0.10804446       0.36884766 </v>
   <v>       1.26708534      -0.68222408       1.03930262 </v>
   <v>      -0.41314744      -0.32622369      -0.45666688 </v>
   <v>       0.68639283       0.14766753      -3.09608305 </v>
   <v>      -1.39903614      -0.37364241       2.63140357 </v>
   <v>       1.79109541       1.47840611      -1.59207011 </v>
   <v>      -0.43392674      -1.05874391      -1.13915244 </v>
   <v>       0.72987735      -0.85553735       0.27219611 </v>
   <v>       0.48852396       1.44601273       2.19663838 </v>
   <v>      -0.05844274      -1.03276216       0.90846845 </v>
   <v>      -0.59975738       1.48959175       0.17260243 </v>
   <v>      -1.56577532       0.80956490       4.26116555 </v>
   <v>      -0.00346561      -0.88266731       0.91000528 </v>
   <v>       0.51542094       0.51648036       2.46112916 </v>
   <v>       1.26850342      -2.34313083      -0.35881489 </v>
   <v>      -1.95408102       0.02299901      -0.46282504 </v>
   <v>      -0.56163160       0.52603926       0.91748898 </v>
   <v>       0.71538201       0.23427557      -0.62125671 </v>
   <v>       1.42849006       1.05976174      -2.69430048 </v>
   <v>       1.33318334      -0.69640830      -1.44368571 </v>
   <v>       0.68194453       1.09906972      -0.41123137 </v>
   <v>      -0.85320219      -0.59704397       0.02109201 </v>
   <v>      -0.27776633       0.17637878      -0.44956665 </v>
   <v>       0.58877554       0.50074487       0.29425814 </v>
   <v>      -1.12839021      -0.35783927      -0.45335604 </v>
   <v>      -0.09857000       0.13616805      -0.19908443 </v>
   <v>      -2.38959178       0.67529452       2.14502642 </v>
   <v>      -0.12571863       1.56465351       0.65048208 </v>
   <v>      -0.03482051       0.33372603      -0.65805351 </v>
   <v>      -0.68167333       0.22503266       1.85253038 </v>
   <v>       1.89580182      -0.20707592      -2.04278382 </v>
   <v>      -0.23581833      -0.02604662      -0.13370606 </v>
   <v>       0.14139013      -1.08803746       0.30330717 </v>
   <v>      -0.80983228       0.39273195      -0.95704194 </v>
   <v>       0.15446170       0.25487612      -0.16420176 </v>
   <v>       0.54663724       1.03372742       0.52151776 </v>
   <v>       1.55563799      -0.63740369      -1.06797856 </v>
   <v>       0.94460602      -0.20113450      -0.67400599 </v>
   <v>       0.19522141      -0.09492130      -0.22983544 </v>
   <v>       0.11213068       0.03408552      -0.75217389 </v>
   <v>       0.11808138       1.26800135       1.48331654 </v>
   <v>      -0.45626447       0.80316220       0.20356180 </v>
   <v>       0.10646685      -0.52018305       0.42018354 </v>
   <v>      -0.45921993       0.20049571       0.39400149 </v>
   <v>       0.97093642      -1.09496536       0.02665442 </v>
   <v>       0.01050283      -1.23255849      -3.57990066 </v>
   <v>       0.15569145      -0.32356148       1.37001555 </v>
   <v>      -0.91499848       0.64269383       0.66535670 </v>
   <v>      -0.57301826      -0.77238692      -1.92709953 </v>
   <v>      -0.28922228       0.23836590      -0.02877474 </v>
   <v>      -0.14696711       0.90956393       0.39879519 </v>
   <v>       0.47137868      -0.10444681      -0.36801927 </v>
   <v>      -0.79785782       0.13621758      -0.16306954 </v>
   <v>       0.37704758      -0.04356150       0.32917310 </v>
   <v>      -0.42812925      -0.90873679       0.17473757 </v>
   <v>      -0.52617401       0.09196228      -1.02317704 </v>
   <v>      -0.16497851       0.14730607       0.46875907 </v>
   <v>       2.13497805      -0.59552974       0.43157208 </v>
   <v>      -0.74760081      -0.58735091       0.26246778 </v>
   <v>      -1.17364143      -1.26340028      -0.42416886 </v>
   <v>      -0.43645307       0.28815776      -1.49571880 </v>
  </varray>
  <varray name="stress" >
   <v>     133.40358720     -11.69140004       5.08501452 </v>
   <v>     -11.69140038      86.80251853     -20.39225504 </v>
   <v>       5.08501354     -20.39225493     136.78827001 </v>
  </varray>
  <energy>
   <i name="e_fr_energy">   -272.26035752 </i>
   <i name="e_wo_entrp">   -272.21881454 </i>
   <i name="e_0_energy">     -0.08308597 </i>
   <i name="kinetic">      8.86351662 </i>
   <i name="lattice kinetic">      0.00000000 </i>
   <i name="nosepot">      0.00000000 </i>
   <i name="nosekinetic">      0.00000000 </i>
   <i name="total">   -263.39684090 </i>
  </energy>
  <time name="totalsc">    8.80    8.84</time>
 </calculation>
 <calculation>
  <scstep>
   <time name="dav">    0.23    0.23</time>
   <time name="total">    0.29    0.29</time>
   <energy>
    <i name="alphaZ">    605.65518664 </i>
    <i name="ewald"> -16679.19207507 </i>
    <i name="hartreedc">  -8023.68392558 </i>
    <i name="XCdc">   1600.40274766 </i>
    <i name="pawpsdc">  22823.80645002 </i>
    <i name="pawaedc"> -23463.88990149 </i>
    <i name="eentropy">     -0.07766005 </i>
    <i name="bandstr">  -4325.58857303 </i>
    <i name="atom">  27190.87089379 </i>
    <i name="e_fr_energy">   -271.69685711 </i>
    <i name="e_wo_entrp">   -271.61919706 </i>
    <i name="e_0_energy">   -271.65802708 </i>
   </energy>
  </scstep>
  <scstep>
   <time name="dav">    0.25    0.25</time>
   <time name="total">    0.31    0.31</time>
   <energy>
    <i name="e_fr_energy">   -272.04141613 </i>
    <i name="e_wo_entrp">   -271.96708913 </i>
    <i name="e_0_energy">   -272.00425263 </i>
   </energy>
  </scstep>
  <scstep>
   <time name="dav">    0.31    0.31</time>
   <time name="total">    0.37    0.37</time>
   <energy>
    <i name="e_fr_energy">   -271.90524058 </i>
    <i name="e_wo_entrp">   -271.88476286 </i>
    <i name="e_0_energy">   -271.89500172 </i>
   </energy>
  </scstep>
  <scstep>
   <time name="dav">    0.27    0.27</time>
   <time name="total">    0.33    0.33</time>
   <energy>
    <i name="e_fr_energy">   -271.82033300 </i>
    <i name="e_wo_entrp">   -271.74387956 </i>
    <i name="e_0_energy">   -271.78210628 </i>
   </energy>
  </scstep>
  <scstep>
   <time name="dav">    0.26    0.26</time>
   <time name="total">    0.32    0.32</time>
   <energy>
    <i name="e_fr_energy">   -271.82641883 </i>
    <i name="e_wo_entrp">   -271.74939349 </i>
    <i name="e_0_energy">   -271.78790616 </i>
   </energy>
  </scstep>
  <scstep>
   <time name="dav">    0.29    0.30</time>
   <time name="total">    0.35    0.36</time>
   <energy>
    <i name="e_fr_energy">   -271.82455608 </i>
    <i name="e_wo_entrp">   -271.74401220 </i>
    <i name="e_0_energy">   -271.78428414 </i>
   </energy>
  </scstep>
  <scstep>
   <time name="dav">    0.26    0.26</time>
   <time name="total">    0.32    0.32</time>
   <energy>
    <i name="e_fr_energy">   -271.82325198 </i>
    <i name="e_wo_entrp">   -271.74419845 </i>
    <i name="e_0_energy">   -271.78372522 </i>
   </energy>
  </scstep>
  <scstep>
   <time name="dav">    0.26    0.26</time>
   <time name="total">    0.32    0.32</time>
   <energy>
    <i name="e_fr_energy">   -271.82238370 </i>
    <i name="e_wo_entrp">   -271.74225015 </i>
    <i name="e_0_energy">   -271.78231692 </i>
   </energy>
  </scstep>
  <scstep>
   <time name="dav">    0.27    0.27</time>
   <time name="total">    0.33    0.33</time>
   <energy>
    <i name="e_fr_energy">   -271.82246405 </i>
    <i name="e_wo_entrp">   -271.74235472 </i>
    <i name="e_0_energy">   -271.78240938 </i>
   </energy>
  </scstep>
  <scstep>
   <time name="dav">    0.27    0.27</time>
   <time name="total">    0.33    0.33</time>
   <energy>
    <i name="e_fr_energy">   -271.82248610 </i>
    <i name="e_wo_entrp">   -271.74165519 </i>
    <i name="e_0_energy">   -271.78207065 </i>
   </energy>
  </scstep>
  <scstep>
   <time name="dav">    0.19    0.19</time>
   <time name="total">    0.24    0.25</time>
   <energy>
    <i name="e_fr_energy">   -271.82246105 </i>
    <i name="e_wo_entrp">   -271.74240366 </i>
    <i name="e_0_energy">   -271.78243235 </i>
   </energy>
  </scstep>
  <scstep>
   <time name="dav">    0.16    0.16</time>
   <time name="total">    0.19    0.19</time>
   <energy>
    <i name="alphaZ">    605.65518664 </i>
    <i name="ewald"> -16679.19207507 </i>
    <i name="hartreedc">  -8025.74729880 </i>
    <i name="XCdc">   1600.51787880 </i>
    <i name="pawpsdc">  22833.95049418 </i>
    <i name="pawaedc"> -23473.92389659 </i>
    <i name="eentropy">     -0.08023739 </i>
    <i name="bandstr">  -4323.87340485 </i>
    <i name="atom">  27190.87089379 </i>
    <i name="e_fr_energy">   -271.82245930 </i>
    <i name="e_wo_entrp">   -271.74222190 </i>
    <i name="e_0_energy">   -271.78234060 </i>
   </energy>
  </scstep>
  <structure>
   <crystal>
    <varray name="basis" >
     <v>       8.13341700       0.00000000       0.00000000 </v>
     <v>       0.00000000       8.11490900       0.00000000 </v>
     <v>       0.00000000       0.00000000       8.11490900 </v>
    </varray>
    <i name="volume">    535.59972730 </i>
    <varray name="rec_basis" >
     <v>       0.12294955       0.00000000       0.00000000 </v>
     <v>       0.00000000       0.12322997       0.00000000 </v>
     <v>       0.00000000       0.00000000       0.12322997 </v>
    </varray>
   </crystal>
   <varray name="positions" >
    <v>       0.04626284       0.84755805       0.42380045 </v>
    <v>       0.15065271       0.56492213       0.54234809 </v>
    <v>       0.31902071       0.82125892       0.81092542 </v>
    <v>       0.92378722       0.45557686       0.71151281 </v>
    <v>       0.48297740       0.48390036       0.83283409 </v>
    <v>       0.76104926       0.00841364       0.99068276 </v>
    <v>       0.75288311       0.21268198       0.30248538 </v>
    <v>       0.52124020       0.02995310       0.27291185 </v>
    <v>       0.49804612       0.28858471       0.07879472 </v>
    <v>       0.02102443       0.67596134       0.90829300 </v>
    <v>       0.74301931       0.97517933       0.47476049 </v>
    <v>       0.52073077       0.08458831       0.76703852 </v>
    <v>       0.51012347       0.30021378       0.48434592 </v>
    <v>       0.75134660       0.47067750       0.95826013 </v>
    <v>       0.71381886       0.68097526       0.16523703 </v>
    <v>       0.43532300       0.58252768       0.25727695 </v>
    <v>       0.57132940       0.80457842       0.98385191 </v>
    <v>       0.73939564       0.49338984       0.44301402 </v>
    <v>       0.76929545       0.75402811       0.74533297 </v>
    <v>       0.83098840       0.09168565       0.78173333 </v>
    <v>       0.96772469       0.51750028       0.26906349 </v>
    <v>       0.46428806       0.72042795       0.57935789 </v>
    <v>       0.25968665       0.52358669       0.02038761 </v>
    <v>       0.26555832       0.77233065       0.27036408 </v>
    <v>       0.99369233       0.25579339       0.98998117 </v>
    <v>       0.30438721       0.05378415       0.50285335 </v>
    <v>       0.25556633       0.29362601       0.76210519 </v>
    <v>       0.14589253       0.93596071       0.69105986 </v>
    <v>       0.20967509       0.24967131       0.26325591 </v>
    <v>       0.01263492       0.20384812       0.53469703 </v>
    <v>       0.01187431       0.96383531       0.14481875 </v>
    <v>       0.25306133       0.04728414       0.05540943 </v>
    <v>       0.28078111       0.27735136       0.05176900 </v>
    <v>       0.43714354       0.56346866       0.46244963 </v>
    <v>       0.96045455       0.98902843       0.59640942 </v>
    <v>       0.77853144       0.68921674       0.96402056 </v>
    <v>       0.75171868       0.44754054       0.20284511 </v>
    <v>       0.20823393       0.80024248       0.55258669 </v>
    <v>       0.73795155       0.26906718       0.54301432 </v>
    <v>       0.67056045       0.56404788       0.73366219 </v>
    <v>       0.50516036       0.79030951       0.26615907 </v>
    <v>       0.50330693       0.49339239       0.02641124 </v>
    <v>       0.21952364       0.97816611       0.27512066 </v>
    <v>       0.00691814       0.20735110       0.19925326 </v>
    <v>       0.03097323       0.25947239       0.74822661 </v>
    <v>       0.65248703       0.93852325       0.73134695 </v>
    <v>       0.54718574       0.28109186       0.30537731 </v>
    <v>       0.20611402       0.80271163       0.98688060 </v>
    <v>       0.00861913       0.41636479       0.46157093 </v>
    <v>       0.98749941       0.68406115       0.71649948 </v>
    <v>       0.28121360       0.54027090       0.77883686 </v>
    <v>       0.21293037       0.52355461       0.23879036 </v>
    <v>       0.81609820       0.70602855       0.39849365 </v>
    <v>       0.03900269       0.48032724       0.00603264 </v>
    <v>       0.50065518       0.02361822       0.03417186 </v>
    <v>       0.80743375       0.00996953       0.25148976 </v>
    <v>       0.77401998       0.23424058       0.00569544 </v>
    <v>       0.25011947       0.24816907       0.48204320 </v>
    <v>       0.48720488       0.99268359       0.48164992 </v>
    <v>       0.49705416       0.30464386       0.71464134 </v>
    <v>       0.31909796       0.09167917       0.81770885 </v>
    <v>       0.96372096       0.94374235       0.95342358 </v>
   </varray>
  </structure>
  <varray name="forces" >
   <v>      -1.81445813       0.09692178       0.45527863 </v>
   <v>       1.48986763      -0.00452173       0.41447516 </v>
   <v>       1.37035251      -0.74258298       1.05711918 </v>
   <v>      -0.40859773      -0.36847568      -0.45614856 </v>
   <v>       0.59225726       0.16676972      -3.31769173 </v>
   <v>      -1.47631382      -0.32361799       2.72403917 </v>
   <v>       1.81872053       1.61663019      -1.60578520 </v>
   <v>      -0.42253314      -1.13415025      -1.08483748 </v>
   <v>       0.78849589      -0.85821788       0.27259348 </v>
   <v>       0.51245337       1.42206758       2.37746684 </v>
   <v>      -0.06599998      -1.03966091       0.91435541 </v>
   <v>      -0.52738278       1.53112135       0.17352435 </v>
   <v>      -1.56695292       0.89563488       4.61358790 </v>
   <v>      -0.01269782      -1.04828826       0.89499663 </v>
   <v>       0.55440561       0.51629478       2.50208975 </v>
   <v>       1.33430246      -2.37900998      -0.39174573 </v>
   <v>      -2.06509225       0.06021825      -0.47278182 </v>
   <v>      -0.65617805       0.37001542       0.90507783 </v>
   <v>       0.81087105       0.16146805      -0.65964351 </v>
   <v>       1.39225553       1.09013264      -2.77742153 </v>
   <v>       1.30350240      -0.70050619      -1.51704410 </v>
   <v>       0.65258924       1.25091034      -0.25603479 </v>
   <v>      -0.83754505      -0.61336409      -0.01162943 </v>
   <v>      -0.29052823       0.28314116      -0.45332873 </v>
   <v>       0.66256491       0.66338831       0.21152661 </v>
   <v>      -0.94016160      -0.47621877      -0.46862379 </v>
   <v>      -0.04915183       0.13234730      -0.17409755 </v>
   <v>      -2.41610043       0.74485328       2.21311306 </v>
   <v>      -0.11056256       1.61042980       0.64749928 </v>
   <v>      -0.11426208       0.25609345      -0.73889613 </v>
   <v>      -0.79038122       0.13677777       2.03605275 </v>
   <v>       2.02515316      -0.16308861      -2.13292556 </v>
   <v>      -0.24741945      -0.14134353      -0.13030227 </v>
   <v>       0.06886395      -1.24404877       0.15047294 </v>
   <v>      -0.91319313       0.44016623      -0.99448181 </v>
   <v>       0.10907495       0.37965754      -0.08107167 </v>
   <v>       0.57066459       1.04019505       0.56605990 </v>
   <v>       1.62902456      -0.72525835      -1.08052665 </v>
   <v>       0.90737634      -0.19680640      -0.67296696 </v>
   <v>       0.18517477      -0.08942508      -0.29283756 </v>
   <v>       0.10665023       0.05150403      -0.78105068 </v>
   <v>       0.16674565       1.33247790       1.69588469 </v>
   <v>      -0.42553699       0.77131869       0.20877069 </v>
   <v>       0.14177966      -0.53787682       0.47775093 </v>
   <v>      -0.51960977       0.23460130       0.46702573 </v>
   <v>       1.02531793      -1.12667638       0.02875831 </v>
   <v>       0.07596186      -1.24288022      -3.84507985 </v>
   <v>       0.16081051      -0.29850575       1.36388210 </v>
   <v>      -0.96000992       0.58669428       0.65573916 </v>
   <v>      -0.65030068      -0.74649628      -2.09706475 </v>
   <v>      -0.23525690       0.22404723      -0.03357200 </v>
   <v>      -0.10864752       0.93447734       0.50092729 </v>
   <v>       0.49172432      -0.06218880      -0.34893431 </v>
   <v>      -0.84685980       0.08676958      -0.18324249 </v>
   <v>       0.34300182      -0.06436589       0.34514271 </v>
   <v>      -0.44434726      -0.96702568       0.16571130 </v>
   <v>      -0.51321484       0.06084333      -1.03131599 </v>
   <v>      -0.14657672       0.14271115       0.46590835 </v>
   <v>       1.94078677      -0.48333320       0.37922214 </v>
   <v>      -0.76040503      -0.62927231       0.20377074 </v>
   <v>      -1.26621734      -1.25392101      -0.39776106 </v>
   <v>      -0.41314334       0.28295615      -1.57051241 </v>
  </varray>
  <varray name="stress" >
   <v>     135.27987805     -11.46341616       6.13940478 </v>
   <v>     -11.46341601      88.39191374     -19.25789775 </v>
   <v>       6.13940494     -19.25789773     142.87274797 </v>
  </varray>
  <energy>
   <i name="e_fr_energy">   -271.82245930 </i>
   <i name="e_wo_entrp">   -271.78234060 </i>
   <i name="e_0_energy">     -0.08023739 </i>
   <i name="kinetic">      8.43682880 </i>
   <i name="lattice kinetic">      0.00000000 </i>
   <i name="nosepot">     -0.01462528 </i>
   <i name="nosekinetic">      0.00460713 </i>
   <i name="total">   -263.39564865 </i>
  </energy>
  <time name="totalsc">    4.42    4.44</time>
 </calculation>
 <calculation>
  <scstep>
   <time name="dav">    0.23    0.23</time>
   <time name="total">    0.29    0.29</time>
   <energy>
    <i name="alphaZ">    605.65518664 </i>
    <i name="ewald"> -16661.64896357 </i>
    <i name="hartreedc">  -8044.18764045 </i>
    <i name="XCdc">   1600.72628601 </i>
    <i name="pawpsdc">  22843.84204642 </i>
    <i name="pawaedc"> -23483.70269640 </i>
    <i name="eentropy">     -0.07520983 </i>
    <i name="bandstr">  -4322.93162210 </i>
    <i name="atom">  27190.87089379 </i>
    <i name="e_fr_energy">   -271.45171950 </i>
    <i name="e_wo_entrp">   -271.37650967 </i>
    <i name="e_0_energy">   -271.41411458 </i>
   </energy>
  </scstep>
  <scstep>
   <time name="dav">    0.23    0.23</time>
   <time name="total">    0.29    0.29</time>
   <energy>
    <i name="e_fr_energy">   -271.55305137 </i>
    <i name="e_wo_entrp">   -271.48029292 </i>
    <i name="e_0_energy">   -271.51667214 </i>
   </energy>
  </scstep>
  <scstep>
   <time name="dav">    0.30    0.30</time>
   <time name="total">    0.36    0.36</time>
   <energy>
    <i name="e_fr_energy">   -271.47635212 </i>
    <i name="e_wo_entrp">   -271.39383345 </i>
    <i name="e_0_energy">   -271.43509279 </i>
   </energy>
  </scstep>
  <scstep>
   <time name="dav">    0.25    0.25</time>
   <time name="total">    0.31    0.31</time>
   <energy>
    <i name="e_fr_energy">   -271.48905293 </i>
    <i name="e_wo_entrp">   -271.42054143 </i>
    <i name="e_0_energy">   -271.45479718 </i>
   </energy>
  </scstep>
  <scstep>
   <time name="dav">    0.27    0.27</time>
   <time name="total">    0.33    0.33</time>
   <energy>
    <i name="e_fr_energy">   -271.48692907 </i>
    <i name="e_wo_entrp">   -271.40868284 </i>
    <i name="e_0_energy">   -271.44780596 </i>
   </energy>
  </scstep>
  <scstep>
   <time name="dav">    0.27    0.27</time>
   <time name="total">    0.33    0.33</time>
   <energy>
    <i name="e_fr_energy">   -271.48681217 </i>
    <i name="e_wo_entrp">   -271.40880164 </i>
    <i name="e_0_energy">   -271.44780691 </i>
   </energy>
  </scstep>
  <scstep>
   <time name="dav">    0.23    0.23</time>
   <time name="total">    0.29    0.29</time>
   <energy>
    <i name="e_fr_energy">   -271.48666267 </i>
    <i name="e_wo_entrp">   -271.40852819 </i>
    <i name="e_0_energy">   -271.44759543 </i>
   </energy>
  </scstep>
  <scstep>
   <time name="dav">    0.24    0.25</time>
   <time name="total">    0.30    0.30</time>
   <energy>
    <i name="e_fr_energy">   -271.48660702 </i>
    <i name="e_wo_entrp">   -271.40859747 </i>
    <i name="e_0_energy">   -271.44760225 </i>
   </energy>
  </scstep>
  <scstep>
   <time name="dav">    0.24    0.24</time>
   <time name="total">    0.30    0.30</time>
   <energy>
    <i name="e_fr_energy">   -271.48658339 </i>
    <i name="e_wo_entrp">   -271.40868815 </i>
    <i name="e_0_energy">   -271.44763577 </i>
   </energy>
  </scstep>
  <scstep>
   <time name="dav">    0.17    0.17</time>
   <time name="total">    0.20    0.20</time>
   <energy>
    <i name="alphaZ">    605.65518664 </i>
    <i name="ewald"> -16661.64896357 </i>
    <i name="hartreedc">  -8043.52872812 </i>
    <i name="XCdc">   1600.68260433 </i>
    <i name="pawpsdc">  22842.02157375 </i>
    <i name="pawaedc"> -23481.90677800 </i>
    <i name="eentropy">     -0.07786123 </i>
    <i name="bandstr">  -4323.55451131 </i>
    <i name="atom">  27190.87089379 </i>
    <i name="e_fr_energy">   -271.48658372 </i>
    <i name="e_wo_entrp">   -271.40872249 </i>
    <i name="e_0_energy">   -271.44765311 </i>
   </energy>
  </scstep>
  <structure>
   <crystal>
    <varray name="basis" >
     <v>       8.13341700       0.00000000       0.00000000 </v>
     <v>       0.00000000       8.11490900       0.00000000 </v>
     <v>       0.00000000       0.00000000       8.11490900 </v>
    </varray>
    <i name="volume">    535.59972730 </i>
    <varray name="rec_basis" >
     <v>       0.12294955       0.00000000       0.00000000 </v>
     <v>       0.00000000       0.12322997       0.00000000 </v>
     <v>       0.00000000       0.00000000       0.12322997 </v>
    </varray>
   </crystal>
   <varray name="positions" >
    <v>       0.04658776       0.84793672       0.42584107 </v>
    <v>       0.15010265       0.56357157       0.54080177 </v>
    <v>       0.31746719       0.82208822       0.81003587 </v>
    <v>       0.92427304       0.45588703       0.71266440 </v>
    <v>       0.48363040       0.48260689       0.83384311 </v>
    <v>       0.76167189       0.00852091       0.98925106 </v>
    <v>       0.75234914       0.21228238       0.30333189 </v>
    <v>       0.52058435       0.03143650       0.27212799 </v>
    <v>       0.49738819       0.28819246       0.07815015 </v>
    <v>       0.02261117       0.67550083       0.90685076 </v>
    <v>       0.74272912       0.97598255       0.47519835 </v>
    <v>       0.52025606       0.08495949       0.76641197 </v>
    <v>       0.50943912       0.29783098       0.48276883 </v>
    <v>       0.75248040       0.47288745       0.95931579 </v>
    <v>       0.71294584       0.68148523       0.16512812 </v>
    <v>       0.43486754       0.58225629       0.25764879 </v>
    <v>       0.57319625       0.80554482       0.98326637 </v>
    <v>       0.74001076       0.49627373       0.44430043 </v>
    <v>       0.76793024       0.75502008       0.74615926 </v>
    <v>       0.83184701       0.09208800       0.78132266 </v>
    <v>       0.96822044       0.51620147       0.26983311 </v>
    <v>       0.46622058       0.71871304       0.57994619 </v>
    <v>       0.25949788       0.52348833       0.02080306 </v>
    <v>       0.26477060       0.77107673       0.27062544 </v>
    <v>       0.99212140       0.25372731       0.99098543 </v>
    <v>       0.30373229       0.05356792       0.50315481 </v>
    <v>       0.25517799       0.29400281       0.76286997 </v>
    <v>       0.14548090       0.93584183       0.69079501 </v>
    <v>       0.21031099       0.24762870       0.26275873 </v>
    <v>       0.01574992       0.20493897       0.53584899 </v>
    <v>       0.01195423       0.96427162       0.14410979 </v>
    <v>       0.25162595       0.04644013       0.05553614 </v>
    <v>       0.28015827       0.27837405       0.05121421 </v>
    <v>       0.43749103       0.56438253       0.46261979 </v>
    <v>       0.96122017       0.98932038       0.59651183 </v>
    <v>       0.77972999       0.68872704       0.96339953 </v>
    <v>       0.75149992       0.44877633       0.20254842 </v>
    <v>       0.20831614       0.80098893       0.55232886 </v>
    <v>       0.73802860       0.26879837       0.54109937 </v>
    <v>       0.67098401       0.56405905       0.73504073 </v>
    <v>       0.50458931       0.79057408       0.26519264 </v>
    <v>       0.50290805       0.49317337       0.02621169 </v>
    <v>       0.21812909       0.97773137       0.27519880 </v>
    <v>       0.00799427       0.20665891       0.19847826 </v>
    <v>       0.03187681       0.25954898       0.74765549 </v>
    <v>       0.65173959       0.93901915       0.72995012 </v>
    <v>       0.54680167       0.28092041       0.30426177 </v>
    <v>       0.20602038       0.80204386       0.98730324 </v>
    <v>       0.00905993       0.41679064       0.46260657 </v>
    <v>       0.98695192       0.68381938       0.71636221 </v>
    <v>       0.28051687       0.53956512       0.77868016 </v>
    <v>       0.21151266       0.52303619       0.23839164 </v>
    <v>       0.81468522       0.70607388       0.39874237 </v>
    <v>       0.03938544       0.48054909       0.00591200 </v>
    <v>       0.50153040       0.02473120       0.03420934 </v>
    <v>       0.80680450       0.01101448       0.25090426 </v>
    <v>       0.77334013       0.23545119       0.00516893 </v>
    <v>       0.25007898       0.24783857       0.48152922 </v>
    <v>       0.48825682       0.99238964       0.48175015 </v>
    <v>       0.49637463       0.30481933       0.71374261 </v>
    <v>       0.32004790       0.09214060       0.81836697 </v>
    <v>       0.96331110       0.94458202       0.95336233 </v>
   </varray>
  </structure>
  <varray name="forces" >
   <v>      -1.90805924       0.12260001       0.31644956 </v>
   <v>       1.59755228       0.08660506       0.47085050 </v>
   <v>       1.46720676      -0.79992238       1.08918967 </v>
   <v>      -0.39041199      -0.39112773      -0.46904818 </v>
   <v>       0.53240147       0.19045065      -3.47730332 </v>
   <v>      -1.55038673      -0.26179048       2.77073969 </v>
   <v>       1.82124777       1.74251455      -1.59770187 </v>
   <v>      -0.41183455      -1.23002003      -1.03703264 </v>
   <v>       0.82538062      -0.84601972       0.25036540 </v>
   <v>       0.52894784       1.41798369       2.48759155 </v>
   <v>      -0.08294675      -1.04632578       0.91146267 </v>
   <v>      -0.44849834       1.53281963       0.17211558 </v>
   <v>      -1.49974008       0.99026394       4.77346584 </v>
   <v>      -0.06649318      -1.19001208       0.87518764 </v>
   <v>       0.58966558       0.51710173       2.54698983 </v>
   <v>       1.37807281      -2.39132717      -0.42689236 </v>
   <v>      -2.17211777       0.08355972      -0.47126256 </v>
   <v>      -0.72981231       0.17607425       0.91109598 </v>
   <v>       0.92707806       0.10304155      -0.68577203 </v>
   <v>       1.35322586       1.09651480      -2.82553062 </v>
   <v>       1.24564165      -0.69733097      -1.59905967 </v>
   <v>       0.63118377       1.40662572      -0.09305026 </v>
   <v>      -0.80814930      -0.61505876      -0.04175263 </v>
   <v>      -0.29328405       0.38969943      -0.46445683 </v>
   <v>       0.72033845       0.83616320       0.08685365 </v>
   <v>      -0.69407118      -0.59487863      -0.48398367 </v>
   <v>      -0.00620972       0.12560286      -0.13352791 </v>
   <v>      -2.42903400       0.79385979       2.25737215 </v>
   <v>      -0.12885834       1.65944869       0.63604699 </v>
   <v>      -0.19712306       0.20701528      -0.81119178 </v>
   <v>      -0.89406321       0.03884740       2.18749133 </v>
   <v>       2.13969216      -0.14256486      -2.19395994 </v>
   <v>      -0.21247514      -0.23697175      -0.11190019 </v>
   <v>       0.02311016      -1.43681461      -0.00290300 </v>
   <v>      -0.98743494       0.47215323      -1.00061804 </v>
   <v>       0.10037657       0.48351568      -0.00430109 </v>
   <v>       0.57372454       1.03701888       0.60191899 </v>
   <v>       1.68502004      -0.81280377      -1.04150820 </v>
   <v>       0.86507136      -0.18772080      -0.64727862 </v>
   <v>       0.16272816      -0.09619395      -0.31719268 </v>
   <v>       0.11968470       0.03863721      -0.79502479 </v>
   <v>       0.14570403       1.33452337       1.81897997 </v>
   <v>      -0.40568844       0.70335217       0.19231962 </v>
   <v>       0.09982430      -0.54787115       0.52448608 </v>
   <v>      -0.58049028       0.21867013       0.53566258 </v>
   <v>       1.07572491      -1.13242237       0.04958772 </v>
   <v>       0.07174999      -1.19904023      -3.92773826 </v>
   <v>       0.18353118      -0.26490046       1.30940905 </v>
   <v>      -1.01494681       0.53016638       0.62070131 </v>
   <v>      -0.75725048      -0.71750808      -2.24460491 </v>
   <v>      -0.16793942       0.23625042      -0.02150318 </v>
   <v>      -0.07642528       0.92255343       0.55243127 </v>
   <v>       0.52007493      -0.00997921      -0.34507042 </v>
   <v>      -0.92356196       0.00617531      -0.20120952 </v>
   <v>       0.31442658      -0.08025536       0.32630576 </v>
   <v>      -0.40970813      -1.02490316       0.16746826 </v>
   <v>      -0.53430565       0.04238309      -1.02041640 </v>
   <v>      -0.13001769       0.12166186       0.42023233 </v>
   <v>       1.79622111      -0.37111426       0.33777885 </v>
   <v>      -0.72628507      -0.63373913       0.15549125 </v>
   <v>      -1.32477630      -1.24514763      -0.35176772 </v>
   <v>      -0.33687541       0.27960106      -1.65449882 </v>
  </varray>
  <varray name="stress" >
   <v>     136.86653167     -11.30600255       7.41917396 </v>
   <v>     -11.30600301      89.80216419     -18.61640167 </v>
   <v>       7.41917354     -18.61640135     147.68228582 </v>
  </varray>
  <energy>
   <i name="e_fr_energy">   -271.48658372 </i>
   <i name="e_wo_entrp">   -271.44765311 </i>
   <i name="e_0_energy">     -0.07786123 </i>
   <i name="kinetic">      8.13215124 </i>
   <i name="lattice kinetic">      0.00000000 </i>
   <i name="nosepot">     -0.05985943 </i>
   <i name="nosekinetic">      0.02017976 </i>
   <i name="total">   -263.39411215 </i>
  </energy>
  <time name="totalsc">    3.71    3.73</time>
 </calculation>
 <calculation>
  <scstep>
   <time name="dav">    0.31    0.31</time>
   <time name="total">    0.39    0.39</time>
   <energy>
    <i name="alphaZ">    605.65518664 </i>
    <i name="ewald"> -16646.35037731 </i>
    <i name="hartreedc">  -8059.15981589 </i>
    <i name="XCdc">   1600.81063582 </i>
    <i name="pawpsdc">  22848.05856916 </i>
    <i name="pawaedc"> -23487.88751972 </i>
    <i name="eentropy">     -0.07603220 </i>
    <i name="bandstr">  -4323.18895604 </i>
    <i name="atom">  27190.87089379 </i>
    <i name="e_fr_energy">   -271.26741575 </i>
    <i name="e_wo_entrp">   -271.19138355 </i>
    <i name="e_0_energy">   -271.22939965 </i>
   </energy>
  </scstep>
  <scstep>
   <time name="dav">    0.23    0.23</time>
   <time name="total">    0.29    0.29</time>
   <energy>
    <i name="e_fr_energy">   -271.27080271 </i>
    <i name="e_wo_entrp">   -271.19877193 </i>
    <i name="e_0_energy">   -271.23478732 </i>
   </energy>
  </scstep>
  <scstep>
   <time name="dav">    0.31    0.32</time>
   <time name="total">    0.37    0.38</time>
   <energy>
    <i name="e_fr_energy">   -271.26963763 </i>
    <i name="e_wo_entrp">   -271.19362815 </i>
    <i name="e_0_energy">   -271.23163289 </i>
   </energy>
  </scstep>
  <scstep>
   <time name="dav">    0.25    0.25</time>
   <time name="total">    0.31    0.31</time>
   <energy>
    <i name="e_fr_energy">   -271.26978959 </i>
    <i name="e_wo_entrp">   -271.19334704 </i>
    <i name="e_0_energy">   -271.23156832 </i>
   </energy>
  </scstep>
  <scstep>
   <time name="dav">    0.19    0.19</time>
   <time name="total">    0.25    0.25</time>
   <energy>
    <i name="e_fr_energy">   -271.26976000 </i>
    <i name="e_wo_entrp">   -271.19428034 </i>
    <i name="e_0_energy">   -271.23202017 </i>
   </energy>
  </scstep>
  <scstep>
   <time name="dav">    0.15    0.15</time>
   <time name="total">    0.19    0.19</time>
   <energy>
    <i name="alphaZ">    605.65518664 </i>
    <i name="ewald"> -16646.35037731 </i>
    <i name="hartreedc">  -8059.07013837 </i>
    <i name="XCdc">   1600.80376595 </i>
    <i name="pawpsdc">  22848.18165176 </i>
    <i name="pawaedc"> -23488.00609609 </i>
    <i name="eentropy">     -0.07569609 </i>
    <i name="bandstr">  -4323.27895124 </i>
    <i name="atom">  27190.87089379 </i>
    <i name="e_fr_energy">   -271.26976096 </i>
    <i name="e_wo_entrp">   -271.19406487 </i>
    <i name="e_0_energy">   -271.23191292 </i>
   </energy>
  </scstep>
  <structure>
   <crystal>
    <varray name="basis" >
     <v>       8.13341700       0.00000000       0.00000000 </v>
     <v>       0.00000000       8.11490900       0.00000000 </v>
     <v>       0.00000000       0.00000000       8.11490900 </v>
    </varray>
    <i name="volume">    535.59972730 </i>
    <varray name="rec_basis" >
     <v>       0.12294955       0.00000000       0.00000000 </v>
     <v>       0.00000000       0.12322997       0.00000000 </v>
[...]
    <v>       0.68824381       0.01858530       0.49141259 </v>
    <v>       0.51559741       0.07301686       0.73114334 </v>
    <v>       0.49583689       0.26225889       0.49470268 </v>
    <v>       0.73663284       0.54530211       0.05576351 </v>
    <v>       0.68563011       0.77400568       0.24678679 </v>
    <v>       0.50468447       0.45608886       0.27671773 </v>
    <v>       0.50175034       0.79191201       0.94203814 </v>
    <v>       0.81546754       0.55917096       0.50057151 </v>
    <v>       0.80999249       0.78984142       0.81993915 </v>
    <v>       0.81362383       0.19825856       0.67940658 </v>
    <v>       0.03042101       0.45299810       0.26353218 </v>
    <v>       0.53966001       0.73325680       0.58050841 </v>
    <v>       0.25043828       0.50829584       0.04060604 </v>
    <v>       0.26258335       0.75699979       0.24738256 </v>
    <v>       0.98362668       0.26792029       0.98179567 </v>
    <v>       0.28524565       0.96060272       0.50475111 </v>
    <v>       0.22323469       0.29736181       0.82054491 </v>
    <v>       0.03386903       0.96477222       0.79118849 </v>
    <v>       0.25408915       0.18954521       0.22984487 </v>
    <v>       0.07011313       0.24852192       0.49996696 </v>
    <v>       0.94376213       0.95428443       0.26043231 </v>
    <v>       0.26906040       0.00902715       0.97845978 </v>
    <v>       0.25745421       0.22450677       0.01831291 </v>
    <v>       0.53629950       0.51264312       0.51309382 </v>
    <v>       0.98194769       0.04011522       0.49788773 </v>
    <v>       0.82851568       0.79859842       0.04411761 </v>
    <v>       0.76566140       0.51166095       0.27912005 </v>
    <v>       0.33808611       0.73036974       0.49383141 </v>
    <v>       0.69628784       0.21407229       0.51102457 </v>
    <v>       0.69703624       0.62233207       0.72067861 </v>
    <v>       0.48006945       0.74989239       0.18025185 </v>
    <v>       0.50972178       0.47369286       0.98840946 </v>
    <v>       0.18096424       0.96224566       0.28324587 </v>
    <v>       0.96633723       0.25480173       0.19005216 </v>
    <v>       0.00630202       0.26610195       0.73254324 </v>
    <v>       0.66972704       0.91790531       0.74209023 </v>
    <v>       0.48369992       0.25865587       0.20047810 </v>
    <v>       0.20296795       0.83014071       0.02934650 </v>
    <v>       0.98853067       0.45509300       0.50006169 </v>
    <v>       0.99313804       0.67955968       0.71040962 </v>
    <v>       0.22015239       0.57487922       0.82731073 </v>
    <v>       0.23962042       0.51949696       0.26685253 </v>
    <v>       0.78859584       0.80874436       0.45654211 </v>
    <v>       0.99490668       0.49084405       0.01148675 </v>
    <v>       0.48019866       0.02186766       0.94728314 </v>
    <v>       0.70397615       0.02478393       0.23608419 </v>
    <v>       0.70267104       0.32233129       0.85384233 </v>
    <v>       0.28574577       0.21967101       0.45176211 </v>
    <v>       0.48882277       0.01553340       0.45911595 </v>
    <v>       0.43193741       0.27468679       0.74985475 </v>
    <v>       0.27408176       0.95230989       0.70795102 </v>
    <v>       0.90744697       0.07191908       0.90506787 </v>
   </varray>
  </structure>
  <varray name="forces" >
   <v>      -0.54718951      -1.17022108       0.87354052 </v>
   <v>      -1.03049587      -0.28096975      -0.54907229 </v>
   <v>      -0.93309869       0.93271234      -0.10378130 </v>
   <v>       0.10747260      -0.07856426      -0.59286320 </v>
   <v>       0.50541258      -0.25636261       1.18637735 </v>
   <v>       0.83259237      -0.04517473       0.29880353 </v>
   <v>       0.40171778      -0.28577707      -0.47796769 </v>
   <v>      -0.25976797       0.47527045      -0.82251231 </v>
   <v>       0.00745408      -0.98781461      -0.84699922 </v>
   <v>       1.27332996       0.26686154       1.73175811 </v>
   <v>       2.13605298      -3.17930595      -0.54480919 </v>
   <v>      -1.18533376      -0.39514039       0.48362225 </v>
   <v>      -1.37952640      -0.12477445       0.05837418 </v>
   <v>       0.23705469      -0.54181492      -0.76921496 </v>
   <v>       0.69565779      -0.40405727       0.34409575 </v>
   <v>      -0.47057861       1.90309691      -0.31733865 </v>
   <v>       0.33749371      -0.44841361       0.63541623 </v>
   <v>      -1.83789219       1.08604000      -0.17225556 </v>
   <v>      -0.82200951      -0.68757224      -0.96930345 </v>
   <v>       0.16500257      -0.12131307       1.71659136 </v>
   <v>      -0.69437357       0.74395748      -0.04406414 </v>
   <v>       1.79862680       0.48408539      -0.90927771 </v>
   <v>       1.03318960      -0.17969889      -0.09213717 </v>
   <v>       0.08310796      -0.38396107      -0.03604682 </v>
   <v>      -0.75563328      -0.81869350       0.12683448 </v>
   <v>      -0.13986827       0.88828106      -1.08486545 </v>
   <v>       0.43619222       0.28415451      -1.76965729 </v>
   <v>       1.53965197       0.40360257      -1.29136942 </v>
   <v>      -0.36800507       0.33195163       0.78468832 </v>
   <v>       0.06430811      -0.61241391       0.48286387 </v>
   <v>       0.44560447       0.92602230      -0.90433921 </v>
   <v>      -0.04645639       0.92392516      -0.43511453 </v>
   <v>      -0.59104144       0.45984657      -0.30617032 </v>
   <v>      -0.55157777      -0.63374550      -0.32159834 </v>
   <v>      -0.35509275       0.20945190       0.23010374 </v>
   <v>      -0.44720112      -0.44076639       0.20914894 </v>
   <v>      -0.28410634      -0.26622739      -0.30479751 </v>
   <v>      -0.60470028       0.50548536       0.10666388 </v>
   <v>       0.50925821       1.73965886      -0.50000123 </v>
   <v>       0.20644877      -0.05457474       0.19264980 </v>
   <v>       0.16156450       0.31744113      -0.19342096 </v>
   <v>      -0.17398809       1.96588184       0.36500191 </v>
   <v>       0.15851541       0.12063834       0.34378458 </v>
   <v>      -0.20044010      -0.41724624       1.28079619 </v>
   <v>       1.21827634       0.40848368       0.31399044 </v>
   <v>      -0.90656186       0.84876085      -0.43798828 </v>
   <v>       0.39063671      -0.74726768       1.34750383 </v>
   <v>      -0.58699393      -2.06699547      -0.19372032 </v>
   <v>       1.20520551      -0.66097274      -0.45659481 </v>
   <v>      -0.62588999       1.28118622      -0.40518625 </v>
   <v>       0.05114135      -1.65019624       0.33074963 </v>
   <v>       0.24963708       0.08696104      -0.02097971 </v>
   <v>      -0.02995589      -0.38432608      -0.57342999 </v>
   <v>      -0.19315560       0.13412233       0.05626197 </v>
   <v>       0.78905767      -0.03221051       0.51732021 </v>
   <v>       0.55601607       0.00761264      -0.05772980 </v>
   <v>       0.83969706      -0.28647724      -0.05339422 </v>
   <v>      -0.58725724       0.35883190       0.05717168 </v>
   <v>      -0.50728490      -0.03010337       0.51943674 </v>
   <v>      -0.32350542       0.05450531      -0.49830160 </v>
   <v>      -0.38739021       0.03146399       1.75850217 </v>
   <v>      -0.94693693       0.47358983       0.65054333 </v>
  </varray>
  <varray name="stress" >
   <v>     107.03979777      -8.37846192      -0.22219657 </v>
   <v>      -8.37846196     120.46846713      -1.77664248 </v>
   <v>      -0.22219643      -1.77664216      97.42963461 </v>
  </varray>
  <energy>
   <i name="e_fr_energy">   -276.65251050 </i>
   <i name="e_wo_entrp">   -276.56921559 </i>
   <i name="e_0_energy">     -0.16658981 </i>
   <i name="kinetic">     12.82137537 </i>
   <i name="lattice kinetic">      0.00000000 </i>
   <i name="nosepot">      0.39709761 </i>
   <i name="nosekinetic">      0.01546499 </i>
   <i name="total">   -263.41857253 </i>
  </energy>
  <time name="totalsc">    2.71    2.72</time>
 </calculation>
 <calculation>
  <scstep>
   <time name="dav">    0.31    0.31</time>
   <time name="total">    0.37    0.37</time>
   <energy>
    <i name="alphaZ">    605.65518664 </i>
    <i name="ewald"> -16665.51948852 </i>
    <i name="hartreedc">  -8019.06197839 </i>
    <i name="XCdc">   1600.08707330 </i>
    <i name="pawpsdc">  22831.81502225 </i>
    <i name="pawaedc"> -23472.07275929 </i>
    <i name="eentropy">     -0.16366996 </i>
    <i name="bandstr">  -4348.34805280 </i>
    <i name="atom">  27190.87089379 </i>
    <i name="e_fr_energy">   -276.73777299 </i>
    <i name="e_wo_entrp">   -276.57410303 </i>
    <i name="e_0_energy">   -276.65593801 </i>
   </energy>
  </scstep>
  <scstep>
   <time name="dav">    0.22    0.22</time>
   <time name="total">    0.28    0.28</time>
   <energy>
    <i name="e_fr_energy">   -276.74681195 </i>
    <i name="e_wo_entrp">   -276.58512001 </i>
    <i name="e_0_energy">   -276.66596598 </i>
   </energy>
  </scstep>
  <scstep>
   <time name="dav">    0.30    0.30</time>
   <time name="total">    0.36    0.36</time>
   <energy>
    <i name="e_fr_energy">   -276.74359488 </i>
    <i name="e_wo_entrp">   -276.57488775 </i>
    <i name="e_0_energy">   -276.65924131 </i>
   </energy>
  </scstep>
  <scstep>
   <time name="dav">    0.26    0.26</time>
   <time name="total">    0.32    0.32</time>
   <energy>
    <i name="e_fr_energy">   -276.74345189 </i>
    <i name="e_wo_entrp">   -276.58091016 </i>
    <i name="e_0_energy">   -276.66218102 </i>
   </energy>
  </scstep>
  <scstep>
   <time name="dav">    0.24    0.24</time>
   <time name="total">    0.29    0.29</time>
   <energy>
    <i name="e_fr_energy">   -276.74346814 </i>
    <i name="e_wo_entrp">   -276.57944695 </i>
    <i name="e_0_energy">   -276.66145754 </i>
   </energy>
  </scstep>
  <scstep>
   <time name="dav">    0.21    0.21</time>
   <time name="total">    0.26    0.27</time>
   <energy>
    <i name="e_fr_energy">   -276.74343365 </i>
    <i name="e_wo_entrp">   -276.57913950 </i>
    <i name="e_0_energy">   -276.66128658 </i>
   </energy>
  </scstep>
  <scstep>
   <time name="dav">    0.15    0.15</time>
   <time name="total">    0.18    0.18</time>
   <energy>
    <i name="alphaZ">    605.65518664 </i>
    <i name="ewald"> -16665.51948852 </i>
    <i name="hartreedc">  -8019.10711987 </i>
    <i name="XCdc">   1600.09098654 </i>
    <i name="pawpsdc">  22831.94842930 </i>
    <i name="pawaedc"> -23472.21025473 </i>
    <i name="eentropy">     -0.16406719 </i>
    <i name="bandstr">  -4348.30799470 </i>
    <i name="atom">  27190.87089379 </i>
    <i name="e_fr_energy">   -276.74342876 </i>
    <i name="e_wo_entrp">   -276.57936157 </i>
    <i name="e_0_energy">   -276.66139516 </i>
   </energy>
  </scstep>
  <structure>
   <crystal>
    <varray name="basis" >
     <v>       8.13341700       0.00000000       0.00000000 </v>
     <v>       0.00000000       8.11490900       0.00000000 </v>
     <v>       0.00000000       0.00000000       8.11490900 </v>
    </varray>
    <i name="volume">    535.59972730 </i>
    <varray name="rec_basis" >
     <v>       0.12294955       0.00000000       0.00000000 </v>
     <v>       0.00000000       0.12322997       0.00000000 </v>
     <v>       0.00000000       0.00000000       0.12322997 </v>
    </varray>
   </crystal>
   <varray name="positions" >
    <v>       0.02106535       0.82595798       0.50921315 </v>
    <v>       0.29632324       0.52107568       0.53964666 </v>
    <v>       0.32896911       0.72991909       0.75546292 </v>
    <v>       0.92553339       0.47717081       0.76918109 </v>
    <v>       0.55688056       0.45733808       0.73453569 </v>
    <v>       0.70452213       0.02920703       0.99458725 </v>
    <v>       0.75207880       0.26304139       0.29574695 </v>
    <v>       0.48413172       0.99141293       0.24785879 </v>
    <v>       0.50235197       0.27003723       0.99334635 </v>
    <v>       0.04433078       0.69119954       0.92055475 </v>
    <v>       0.68817357       0.01912891       0.49102963 </v>
    <v>       0.51502479       0.07146388       0.73045373 </v>
    <v>       0.49520473       0.26208994       0.49490491 </v>
    <v>       0.73494693       0.54656649       0.05539048 </v>
    <v>       0.68498516       0.77323873       0.24555262 </v>
    <v>       0.50553620       0.45715324       0.27663839 </v>
    <v>       0.50210121       0.78973623       0.94241555 </v>
    <v>       0.81664009       0.55899814       0.49864716 </v>
    <v>       0.80872009       0.79069112       0.82230084 </v>
    <v>       0.81119118       0.19950094       0.68037911 </v>
    <v>       0.03082491       0.45491657       0.26465100 </v>
    <v>       0.54142920       0.73441503       0.57952542 </v>
    <v>       0.25203389       0.50886266       0.04063058 </v>
    <v>       0.26397306       0.75526514       0.24633916 </v>
    <v>       0.98426447       0.26923947       0.98123566 </v>
    <v>       0.28433346       0.96098084       0.50513517 </v>
    <v>       0.22389492       0.29730372       0.81972332 </v>
    <v>       0.03359798       0.96683193       0.79190179 </v>
    <v>       0.25423468       0.18828432       0.22980589 </v>
    <v>       0.06975471       0.24720483       0.49911116 </v>
    <v>       0.94375549       0.95543783       0.26195547 </v>
    <v>       0.26799770       0.01003194       0.97795764 </v>
    <v>       0.25582489       0.22397064       0.01597199 </v>
    <v>       0.53858415       0.51284950       0.51302399 </v>
    <v>       0.98162772       0.03927648       0.49930225 </v>
    <v>       0.82811842       0.79733184       0.04660777 </v>
    <v>       0.76339764       0.51060646       0.27967993 </v>
    <v>       0.33657847       0.73294976       0.49264154 </v>
    <v>       0.69615979       0.21611528       0.51010289 </v>
    <v>       0.69633487       0.62312008       0.72010590 </v>
    <v>       0.48024841       0.74751094       0.18198545 </v>
    <v>       0.51036532       0.47559935       0.98876057 </v>
    <v>       0.18117212       0.96228954       0.28220736 </v>
    <v>       0.96544157       0.25496130       0.19006879 </v>
    <v>       0.00635756       0.26536372       0.72962337 </v>
    <v>       0.66748076       0.91877114       0.74088053 </v>
    <v>       0.48458205       0.25707774       0.19926520 </v>
    <v>       0.20343020       0.83045755       0.02918119 </v>
    <v>       0.98989426       0.45629760       0.49862200 </v>
    <v>       0.99576739       0.67981898       0.71401990 </v>
    <v>       0.21846965       0.57359787       0.82869992 </v>
    <v>       0.24278145       0.51923495       0.26451444 </v>
    <v>       0.78911258       0.80580487       0.45898992 </v>
    <v>       0.99505195       0.49255570       0.01312275 </v>
    <v>       0.48186956       0.02008331       0.94767177 </v>
    <v>       0.70517139       0.02779124       0.23693894 </v>
    <v>       0.70541753       0.32292356       0.85223930 </v>
    <v>       0.28824424       0.21992394       0.45220406 </v>
    <v>       0.48659290       0.01381887       0.45868665 </v>
    <v>       0.43229660       0.27446912       0.74988554 </v>
    <v>       0.27394628       0.94938032       0.70891176 </v>
    <v>       0.90954246       0.07192653       0.90290526 </v>
   </varray>
  </structure>
  <varray name="forces" >
   <v>      -0.57152967      -1.21001490       0.89460669 </v>
   <v>      -0.99729402      -0.14470698      -0.61982570 </v>
   <v>      -0.91657762       0.87460381      -0.06164334 </v>
   <v>       0.07207639      -0.16891095      -0.68456649 </v>
   <v>       0.50504988      -0.30618573       1.17504687 </v>
   <v>       1.01946727       0.02911949       0.35485042 </v>
   <v>       0.52213566      -0.20538350      -0.63093174 </v>
   <v>      -0.12819839       0.38391670      -0.89575619 </v>
   <v>       0.04489146      -0.76218614      -0.95084929 </v>
   <v>       1.33859561       0.45483986       1.83510979 </v>
   <v>       2.01816844      -3.07331825      -0.54190194 </v>
   <v>      -1.29672388      -0.29811864       0.51443150 </v>
   <v>      -1.27724338      -0.10199419       0.08530616 </v>
   <v>       0.30667933      -0.59364060      -0.71419343 </v>
   <v>       0.76066139      -0.28773490       0.45486269 </v>
   <v>      -0.48846840       1.77462846      -0.33029869 </v>
   <v>       0.21295960      -0.42633760       0.58268378 </v>
   <v>      -1.92352200       1.09142167      -0.10820650 </v>
   <v>      -0.79691280      -0.62975042      -1.05932165 </v>
   <v>       0.24165714      -0.12387394       1.66231998 </v>
   <v>      -0.63667048       0.61917687      -0.17423304 </v>
   <v>       1.68199971       0.47869868      -0.93322739 </v>
   <v>       1.02265953      -0.22224094      -0.10024114 </v>
   <v>       0.01426657      -0.24123163       0.03693861 </v>
   <v>      -0.76615915      -0.86064703       0.20815127 </v>
   <v>      -0.17558721       0.88271737      -1.03755913 </v>
   <v>       0.37189595       0.33447314      -1.83576979 </v>
   <v>       1.76398046       0.09691374      -1.54122856 </v>
   <v>      -0.38077862       0.41532526       0.69281310 </v>
   <v>       0.06105873      -0.50342377       0.49462533 </v>
   <v>       0.43284016       0.90799165      -0.94753627 </v>
   <v>       0.08264428       0.76875305      -0.45238165 </v>
   <v>      -0.51992236       0.47637645      -0.10509429 </v>
   <v>      -0.57903258      -0.55444769      -0.28134571 </v>
   <v>      -0.35117017       0.16492111       0.18455828 </v>
   <v>      -0.45844929      -0.39792834       0.15460515 </v>
   <v>      -0.23568291      -0.22465203      -0.34910269 </v>
   <v>      -0.55387126       0.28377449       0.19344522 </v>
   <v>       0.50880140       1.35125008      -0.41944973 </v>
   <v>       0.25461459      -0.04396083       0.24715431 </v>
   <v>       0.14028179       0.33557413      -0.27561314 </v>
   <v>      -0.19573813       1.79727434       0.33186967 </v>
   <v>       0.15769581       0.10562239       0.36990973 </v>
   <v>      -0.17814385      -0.35727957       1.30040190 </v>
   <v>       1.16864162       0.46800657       0.32497462 </v>
   <v>      -0.68093816       0.65801532      -0.40384084 </v>
   <v>       0.36640274      -0.61398496       1.40841821 </v>
   <v>      -0.57043186      -2.10411987      -0.19290070 </v>
   <v>       1.27272026      -0.67861376      -0.43378816 </v>
   <v>      -0.72052803       1.29715095      -0.53724900 </v>
   <v>       0.18188590      -1.60221682       0.25076643 </v>
   <v>       0.15524605       0.02965143       0.02086289 </v>
   <v>      -0.05363870      -0.28694581      -0.63882183 </v>
   <v>      -0.18977432       0.04131809       0.06833703 </v>
   <v>       0.59665885      -0.00688132       0.49044003 </v>
   <v>       0.47012556      -0.11329647      -0.04499937 </v>
   <v>       0.76699623      -0.22834524       0.00814089 </v>
   <v>      -0.74938636       0.35550186       0.04290720 </v>
   <v>      -0.18095684       0.01271217       0.65296232 </v>
   <v>      -0.26997697       0.06337970      -0.47742806 </v>
   <v>      -0.36541460       0.10267876       1.64173356 </v>
   <v>      -1.32186652       0.64137039       0.93129151 </v>
  </varray>
  <varray name="stress" >
   <v>     104.38551262      -9.66122409      -1.93811423 </v>
   <v>      -9.66122394     117.22161137      -1.48409666 </v>
   <v>      -1.93811443      -1.48409678      98.79729788 </v>
  </varray>
  <energy>
   <i name="e_fr_energy">   -276.74342876 </i>
   <i name="e_wo_entrp">   -276.66139516 </i>
   <i name="e_0_energy">     -0.16406719 </i>
   <i name="kinetic">     12.96384496 </i>
   <i name="lattice kinetic">      0.00000000 </i>
   <i name="nosepot">      0.34460918 </i>
   <i name="nosekinetic">      0.01421819 </i>
   <i name="total">   -263.42075642 </i>
  </energy>
  <time name="totalsc">    2.75    2.77</time>
 </calculation>
 <calculation>
