LiF                                     
           1
     8.133417    0.000000    0.000000
     0.000000    8.114909    0.000000
     0.000000    0.000000    8.114909
   F    Li
  32  30
Direct configuration=     1
   0.04582475  0.84718600  0.42179062
   0.15129479  0.56627098  0.54391851
   0.32065763  0.82038426  0.81188002
   0.92327615  0.45524412  0.71033398
   0.48236181  0.48520290  0.83161868
   0.76033492  0.00828638  0.99228314
   0.75352965  0.21318236  0.30153936
   0.52186861  0.02840061  0.27362691
   0.49875219  0.28892295  0.07945556
   0.01947120  0.67651039  0.90988224
   0.74330474  0.97431215  0.47438028
   0.52117171  0.08431345  0.76767516
   0.51070893  0.30264997  0.48620971
   0.75021302  0.46840466  0.95726163
   0.71472516  0.68049831  0.16550228
   0.43586088  0.58265009  0.25688099
   0.56933553  0.80361703  0.98440716
   0.73873997  0.49053256  0.44178568
   0.77070936  0.75304751  0.74446633
   0.83021737  0.09135208  0.78196976
   0.96731054  0.51875390  0.26819984
   0.46239818  0.72221923  0.57875421
   0.25982263  0.52364669  0.01997187
   0.26632668  0.77360095  0.27007464
   0.99530247  0.25789870  0.98899126
   0.30498238  0.05397046  0.50252289
   0.25595084  0.29325805  0.76133037
   0.14615259  0.93612618  0.69146278
   0.20903272  0.25181241  0.26379297
   0.00951608  0.20277469  0.53350015
   0.01174485  0.96340818  0.14565419
   0.25462113  0.04811710  0.05514940
   0.28136107  0.27630602  0.05230102
   0.43680779  0.56234510  0.46230513
   0.95953506  0.98881156  0.59613850
   0.77735242  0.68977035  0.96462709
   0.75203340  0.44648263  0.20323736
   0.20842703  0.79937409  0.55266101
   0.73802774  0.26930245  0.54481293
   0.67016838  0.56402169  0.73223556
   0.50574846  0.79005411  0.26699195
   0.50373324  0.49383715  0.02689798
   0.22084430  0.97873122  0.27507796
   0.00586692  0.20795145  0.20010831
   0.02998251  0.25943578  0.74887620
   0.65340671  0.93783706  0.73274700
   0.54758191  0.28105255  0.30583972
   0.20623443  0.80332814  0.98668961
   0.00801615  0.41603901  0.46064761
   0.98793597  0.68417622  0.71628108
   0.28186943  0.54101397  0.77898765
   0.21432776  0.52423095  0.23927348
   0.81759239  0.70597285  0.39818603
   0.03847684  0.48012047  0.00612204
   0.49983866  0.02249574  0.03419288
   0.80798681  0.00876199  0.25210263
   0.77461193  0.23304180  0.00604648
   0.25013481  0.24852351  0.48263552
   0.48648209  0.99289538  0.48161406
   0.49760398  0.30436206  0.71557353
   0.31793465  0.09100585  0.81698404
   0.96406016  0.94295175  0.95321849
Direct configuration=     2
   0.04626284  0.84755805  0.42380045
   0.15065271  0.56492213  0.54234809
   0.31902071  0.82125892  0.81092542
   0.92378722  0.45557686  0.71151281
   0.48297740  0.48390036  0.83283409
   0.76104926  0.00841364  0.99068276
   0.75288311  0.21268198  0.30248538
   0.52124020  0.02995310  0.27291185
   0.49804612  0.28858471  0.07879472
   0.02102443  0.67596134  0.90829300
   0.74301931  0.97517933  0.47476049
   0.52073077  0.08458831  0.76703852
   0.51012347  0.30021378  0.48434592
   0.75134660  0.47067750  0.95826013
   0.71381886  0.68097526  0.16523703
   0.43532300  0.58252768  0.25727695
   0.57132940  0.80457842  0.98385191
   0.73939564  0.49338984  0.44301402
   0.76929545  0.75402811  0.74533297
   0.83098840  0.09168565  0.78173333
   0.96772469  0.51750028  0.26906349
   0.46428806  0.72042795  0.57935789
   0.25968665  0.52358669  0.02038761
   0.26555832  0.77233065  0.27036408
   0.99369233  0.25579339  0.98998117
   0.30438721  0.05378415  0.50285335
   0.25556633  0.29362601  0.76210519
   0.14589253  0.93596071  0.69105986
   0.20967509  0.24967131  0.26325591
   0.01263492  0.20384812  0.53469703
   0.01187431  0.96383531  0.14481875
   0.25306133  0.04728414  0.05540943
   0.28078111  0.27735136  0.05176900
   0.43714354  0.56346866  0.46244963
   0.96045455  0.98902843  0.59640942
   0.77853144  0.68921674  0.96402056
   0.75171868  0.44754054  0.20284511
   0.20823393  0.80024248  0.55258669
   0.73795155  0.26906718  0.54301432
   0.67056045  0.56404788  0.73366219
   0.50516036  0.79030951  0.26615907
   0.50330693  0.49339239  0.02641124
   0.21952364  0.97816611  0.27512066
   0.00691814  0.20735110  0.19925326
   0.03097323  0.25947239  0.74822661
   0.65248703  0.93852325  0.73134695
   0.54718574  0.28109186  0.30537731
   0.20611402  0.80271163  0.98688060
   0.00861913  0.41636479  0.46157093
   0.98749941  0.68406115  0.71649948
   0.28121360  0.54027090  0.77883686
   0.21293037  0.52355461  0.23879036
   0.81609820  0.70602855  0.39849365
   0.03900269  0.48032724  0.00603264
   0.50065518  0.02361822  0.03417186
   0.80743375  0.00996953  0.25148976
   0.77401998  0.23424058  0.00569544
   0.25011947  0.24816907  0.48204320
   0.48720488  0.99268359  0.48164992
   0.49705416  0.30464386  0.71464134
   0.31909796  0.09167917  0.81770885
   0.96372096  0.94374235  0.95342358
Direct configuration=     3
   0.04658776  0.84793672  0.42584107
   0.15010265  0.56357157  0.54080177
   0.31746719  0.82208822  0.81003587
   0.92427304  0.45588703  0.71266440
   0.48363040  0.48260689  0.83384311
   0.76167189  0.00852091  0.98925106
   0.75234914  0.21228238  0.30333189
   0.52058435  0.03143650  0.27212799
   0.49738819  0.28819246  0.07815015
   0.02261117  0.67550083  0.90685076
   0.74272912  0.97598255  0.47519835
   0.52025606  0.08495949  0.76641197
   0.50943912  0.29783098  0.48276883
   0.75248040  0.47288745  0.95931579
   0.71294584  0.68148523  0.16512812
   0.43486754  0.58225629  0.25764879
   0.57319625  0.80554482  0.98326637
   0.74001076  0.49627373  0.44430043
   0.76793024  0.75502008  0.74615926
   0.83184701  0.09208800  0.78132266
   0.96822044  0.51620147  0.26983311
   0.46622058  0.71871304  0.57994619
   0.25949788  0.52348833  0.02080306
   0.26477060  0.77107673  0.27062544
   0.99212140  0.25372731  0.99098543
   0.30373229  0.05356792  0.50315481
   0.25517799  0.29400281  0.76286997
   0.14548090  0.93584183  0.69079501
   0.21031099  0.24762870  0.26275873
   0.01574992  0.20493897  0.53584899
   0.01195423  0.96427162  0.14410979
   0.25162595  0.04644013  0.05553614
   0.28015827  0.27837405  0.05121421
   0.43749103  0.56438253  0.46261979
   0.96122017  0.98932038  0.59651183
   0.77972999  0.68872704  0.96339953
   0.75149992  0.44877633  0.20254842
   0.20831614  0.80098893  0.55232886
   0.73802860  0.26879837  0.54109937
   0.67098401  0.56405905  0.73504073
   0.50458931  0.79057408  0.26519264
   0.50290805  0.49317337  0.02621169
   0.21812909  0.97773137  0.27519880
   0.00799427  0.20665891  0.19847826
   0.03187681  0.25954898  0.74765549
   0.65173959  0.93901915  0.72995012
   0.54680167  0.28092041  0.30426177
   0.20602038  0.80204386  0.98730324
   0.00905993  0.41679064  0.46260657
   0.98695192  0.68381938  0.71636221
   0.28051687  0.53956512  0.77868016
   0.21151266  0.52303619  0.23839164
   0.81468522  0.70607388  0.39874237
   0.03938544  0.48054909  0.00591200
   0.50153040  0.02473120  0.03420934
   0.80680450  0.01101448  0.25090426
   0.77334013  0.23545119  0.00516893
   0.25007898  0.24783857  0.48152922
   0.48825682  0.99238964  0.48175015
   0.49637463  0.30481933  0.71374261
   0.32004790  0.09214060  0.81836697
   0.96331110  0.94458202  0.95336233
Direct configuration=     4
   0.04679389  0.84832438  0.42790669
   0.14965085  0.56222353  0.53928140
   0.31600134  0.82286978  0.80921262
   0.92473534  0.45617383  0.71378961
   0.48431799  0.48132259  0.83463690
   0.76219881  0.00861242  0.98798971
   0.75192744  0.21199137  0.30408056
   0.51990087  0.03284681  0.27127746
   0.49677997  0.28774662  0.07751991
   0.02423454  0.67512844  0.90556110
   0.74243275  0.97672252  0.47569460
   0.51975187  0.08542801  0.76579490
   0.50865906  0.29550482  0.48148722
   0.75361251  0.47502858  0.96042906
   0.71210728  0.68202921  0.16517874
   0.43449685  0.58183477  0.25799500
   0.57493155  0.80651919  0.98265009
   0.74058147  0.49917603  0.44564726
   0.76661940  0.75602130  0.74694480
   0.83279201  0.09256042  0.78073416
   0.96879499  0.51485618  0.27050460
   0.46819697  0.71708249  0.58053030
   0.25925783  0.52335157  0.02121712
   0.26396236  0.76984456  0.27085853
   0.99059141  0.25170898  0.99199778
   0.30303211  0.05331427  0.50342687
   0.25478804  0.29438877  0.76362845
   0.14491613  0.93577277  0.69067118
   0.21094009  0.24568549  0.26230040
   0.01885989  0.20604581  0.53695312
   0.01197816  0.96471181  0.14353640
   0.25032056  0.04558551  0.05552590
   0.27949763  0.27935937  0.05063927
   0.43784299  0.56505500  0.46279008
   0.96182005  0.98969360  0.59644478
   0.78094817  0.68831865  0.96277647
   0.75137754  0.45019161  0.20235344
   0.20868376  0.80159953  0.55189374
   0.73825212  0.26849740  0.53907005
   0.67143590  0.56405429  0.73636897
   0.50403688  0.79084623  0.26408906
   0.50253260  0.49318083  0.02632077
   0.21666212  0.97741540  0.27531001
   0.00908965  0.20587237  0.19779065
   0.03268394  0.25966327  0.74717416
   0.65117231  0.93932433  0.72855852
   0.54642853  0.28054530  0.30247673
   0.20595732  0.80132987  0.98794948
   0.00932956  0.41730794  0.46375034
   0.98627451  0.68345556  0.71584363
   0.27978971  0.53889812  0.77851964
   0.21007827  0.52267357  0.23808598
   0.81335665  0.70611801  0.39893330
   0.03961236  0.48077292  0.00575710
   0.50246075  0.02583364  0.03430254
   0.80610402  0.01188830  0.25034599
   0.77256782  0.23667233  0.00446806
   0.25001607  0.24752830  0.48108556
   0.48961537  0.99203234  0.48190818
   0.49557011  0.30488797  0.71286832
   0.32077540  0.09239207  0.81896715
   0.96284288  0.94547159  0.95302018
Direct configuration=     5
   0.04687605  0.84872213  0.42999121
   0.14930385  0.56088300  0.53778943
   0.31462669  0.82360079  0.80845645
   0.92517516  0.45643632  0.71489016
   0.48503709  0.48004850  0.83521026
   0.76262628  0.00869151  0.98689873
   0.75161905  0.21181501  0.30473270
   0.51918914  0.03418086  0.27036193
   0.49622327  0.28724758  0.07690046
   0.02589539  0.67484409  0.90442556
   0.74212957  0.97739983  0.47624871
   0.51922410  0.08599314  0.76518699
   0.50778744  0.29323572  0.48049694
   0.75474210  0.47709316  0.96160047
   0.71130468  0.68260912  0.16539108
   0.43421239  0.58126076  0.25831391
   0.57653120  0.80750296  0.98200263
   0.74110586  0.50208988  0.44705524
   0.76536940  0.75702978  0.74768741
   0.83382338  0.09310433  0.77996440
   0.96944611  0.51346339  0.27107470
   0.47021925  0.71554199  0.58111920
   0.25896811  0.52317566  0.02162867
   0.26313085  0.76863690  0.27106345
   0.98910443  0.24974616  0.99301429
   0.30229995  0.05301331  0.50366885
   0.25439818  0.29478389  0.76438441
   0.14419670  0.93575395  0.69068983
   0.21156484  0.24384075  0.26187898
   0.02196153  0.20716748  0.53800727
   0.01194032  0.96515110  0.14310598
   0.24915041  0.04472067  0.05537458
   0.27880017  0.28030514  0.05004492
   0.43819057  0.56547073  0.46294011
   0.96225244  0.99015279  0.59621241
   0.78218475  0.68801031  0.96216178
   0.75135568  0.45178353  0.20226535
   0.20934888  0.80206747  0.55128696
   0.73861359  0.26816432  0.53693068
   0.67191356  0.56403176  0.73764358
   0.50350094  0.79112548  0.26284210
   0.50218009  0.49341841  0.02675272
   0.21512332  0.97721048  0.27545789
   0.01020081  0.20499103  0.19720188
   0.03338694  0.25981462  0.74679558
   0.65079219  0.93943747  0.72717299
   0.54605706  0.27996742  0.30003363
   0.20592712  0.80057361  0.98882016
   0.00942478  0.41790777  0.46499862
   0.98546322  0.68297714  0.71494113
   0.27903815  0.53826979  0.77835548
   0.20863364  0.52246721  0.23788545
   0.81211379  0.70617206  0.39906687
   0.03967211  0.48099520  0.00556206
   0.50344639  0.02692158  0.03445205
   0.80532942  0.01258272  0.24981295
   0.77169979  0.23790298  0.00359395
   0.24993357  0.24724001  0.48070284
   0.49123477  0.99163310  0.48211941
   0.49464131  0.30485265  0.71200962
   0.32126611  0.09243291  0.81951358
   0.96232977  0.94641523  0.95238683
Direct configuration=     6
   0.04682984  0.84912875  0.43208977
   0.14906852  0.55955412  0.53632863
   0.31334516  0.82427915  0.80776808
   0.92559168  0.45667343  0.71596700
   0.48578615  0.47878456  0.83556243
   0.76295053  0.00876288  0.98597772
   0.75142444  0.21175863  0.30529016
   0.51844920  0.03543566  0.26938261
   0.49571937  0.28669576  0.07628645
   0.02759430  0.67464796  0.90343996
   0.74181852  0.97801552  0.47686040
   0.51867868  0.08665185  0.76458680
   0.50682997  0.29102333  0.47978278
   0.75586920  0.47907226  0.96282848
   0.71054071  0.68322565  0.16576585
   0.43401554  0.58053292  0.25860361
   0.57799157  0.80849836  0.98132355
   0.74158204  0.50500935  0.44852613
   0.76418454  0.75804211  0.74838647
   0.83494081  0.09372079  0.77901117
   0.97017154  0.51202267  0.27154074
   0.47228848  0.71409693  0.58172079
   0.25863046  0.52296000  0.02203600
   0.26227304  0.76745910  0.27123966
   0.98766050  0.24784353  0.99402863
   0.30154993  0.05265581  0.50387941
   0.25401012  0.29518811  0.76514209
   0.14332430  0.93578300  0.69085119
   0.21218601  0.24209492  0.26149294
   0.02505302  0.20830168  0.53900659
   0.01183480  0.96558385  0.14282330
   0.24812074  0.04384646  0.05507879
   0.27806896  0.28119982  0.04943345
   0.43852585  0.56561010  0.46305448
   0.96251526  0.99070398  0.59581212
   0.78344565  0.68782782  0.96156602
   0.75143758  0.45355489  0.20228933
   0.21030885  0.80239682  0.55051732
   0.73910419  0.26779753  0.53468269
   0.67241755  0.56399308  0.73885901
   0.50297744  0.79140910  0.26144774
   0.50184732  0.49388502  0.02752799
   0.21352068  0.97711014  0.27564191
   0.01132127  0.20400904  0.19672966
   0.03398331  0.26000354  0.74653354
   0.65059509  0.93937303  0.72579626
   0.54566917  0.27919641  0.29700601
   0.20593105  0.79978123  0.98990863
   0.00933613  0.41858508  0.46635008
   0.98451260  0.68239407  0.71365215
   0.27826608  0.53767807  0.77818567
   0.20718508  0.52242087  0.23780015
   0.81095772  0.70625257  0.39914307
   0.03955757  0.48120722  0.00532585
   0.50448474  0.02799348  0.03465193
   0.80448248  0.01309099  0.24930321
   0.77073381  0.23913870  0.00254630
   0.24983635  0.24697774  0.48037660
   0.49307433  0.99120856  0.48237229
   0.49359153  0.30470608  0.71115843
   0.32150935  0.09226417  0.82000640
   0.96179303  0.94741375  0.95146299
Direct configuration=     7
   0.04665110  0.84954387  0.43419953
   0.14895268  0.55824271  0.53490126
   0.31215756  0.82490473  0.80714735
   0.92598467  0.45688457  0.71702039
   0.48656491  0.47753084  0.83569652
   0.76316832  0.00883156  0.98522434
   0.75134342  0.21182655  0.30575402
   0.51768348  0.03660799  0.26834157
   0.49526861  0.28609284  0.07567183
   0.02932907  0.67454068  0.90259625
   0.74149874  0.97857052  0.47752854
   0.51812264  0.08739970  0.76399277
   0.50579388  0.28886581  0.47932160
   0.75699515  0.48095791  0.96411214
   0.70981721  0.68388027  0.16630412
   0.43390740  0.57964985  0.25886227
   0.57931021  0.80950803  0.98061219
   0.74200843  0.50792637  0.45006269
   0.76307132  0.75905388  0.74904060
   0.83614403  0.09441043  0.77787458
   0.97096838  0.51053363  0.27190076
   0.47440523  0.71275173  0.58234130
   0.25824615  0.52270359  0.02243832
   0.26138607  0.76631602  0.27138658
   0.98626112  0.24600646  0.99503556
   0.30079554  0.05223147  0.50405741
   0.25362532  0.29560062  0.76590566
   0.14230222  0.93585634  0.69115521
   0.21280522  0.24044860  0.26114119
   0.02813101  0.20944746  0.53994655
   0.01165608  0.96600457  0.14268977
   0.24723472  0.04296257  0.05463491
   0.27730169  0.28203581  0.04880844
   0.43884437  0.56545938  0.46312400
   0.96260314  0.99135369  0.59524144
   0.78472931  0.68779249  0.96100532
   0.75162912  0.45550526  0.20243254
   0.21156551  0.80259479  0.54959602
   0.73971173  0.26740439  0.53232944
   0.67294349  0.56393727  0.74001226
   0.50246284  0.79169048  0.25990330
   0.50152329  0.49458213  0.02864581
   0.21185481  0.97710260  0.27586203
   0.01244308  0.20292148  0.19638168
   0.03447513  0.26022968  0.74639640
   0.65056907  0.93914833  0.72443733
   0.54523949  0.27823949  0.29346222
   0.20597231  0.79895619  0.99120738
   0.00905520  0.41932484  0.46780176
   0.98342114  0.68170677  0.71199007
   0.27747937  0.53712273  0.77801373
   0.20573823  0.52253290  0.23784184
   0.80988959  0.70637622  0.39915740
   0.03926054  0.48140261  0.00504540
   0.50557131  0.02904863  0.03489883
   0.80356682  0.01340867  0.24880878
   0.76967859  0.24037834  0.00132290
   0.24973187  0.24674647  0.48010419
   0.49510184  0.99078072  0.48266589
   0.49242360  0.30445135  0.71030571
   0.32149480  0.09188757  0.82044842
   0.96125006  0.94846799  0.95026534
Direct configuration=     8
   0.04633514  0.84996819  0.43631512
   0.14896532  0.55695410  0.53350819
   0.31106456  0.82547534  0.80659539
   0.92635348  0.45706919  0.71805018
   0.48737425  0.47628839  0.83562170
   0.76327678  0.00890300  0.98463602
   0.75137642  0.21202186  0.30612528
   0.51689423  0.03769398  0.26724204
   0.49487185  0.28544166  0.07504987
   0.03109709  0.67452291  0.90188282
   0.74116869  0.97906562  0.47825175
   0.51756230  0.08823110  0.76340267
   0.50468894  0.28676471  0.47908406
   0.75812056  0.48274407  0.96545397
   0.70913541  0.68457491  0.16700713
   0.43389000  0.57861163  0.25908791
   0.58048352  0.81053304  0.97986928
   0.74238477  0.51083326  0.45166708
   0.76203640  0.76005907  0.74964946
   0.83743046  0.09517258  0.77655770
   0.97183340  0.50899393  0.27215346
   0.47657157  0.71150632  0.58298591
   0.25781650  0.52240562  0.02283570
   0.26046907  0.76521156  0.27150492
   0.98490681  0.24423928  0.99603026
   0.30004849  0.05173068  0.50420112
   0.25324530  0.29601966  0.76667890
   0.14113365  0.93597021  0.69159933
   0.21342383  0.23890025  0.26082292
   0.03119194  0.21060395  0.54082265
   0.01139860  0.96640811  0.14270510
   0.24649559  0.04206887  0.05404028
   0.27650590  0.28280274  0.04817108
   0.43914514  0.56501137  0.46314351
   0.96251823  0.99210675  0.59450060
   0.78603153  0.68793064  0.96049400
   0.75193565  0.45763602  0.20270069
   0.21311744  0.80266802  0.54853684
   0.74042193  0.26698594  0.52988261
   0.67349821  0.56387433  0.74109893
   0.50195292  0.79196269  0.25820308
   0.50120456  0.49550433  0.03008301
   0.21012983  0.97718015  0.27611810
   0.01355876  0.20172440  0.19617058
   0.03485503  0.26049178  0.74639789
   0.65069770  0.93878642  0.72310427
   0.54473870  0.27709971  0.28949129
   0.20605376  0.79810448  0.99270855
   0.00857147  0.42011125  0.46934654
   0.98219461  0.68092704  0.70998308
   0.27668200  0.53660226  0.77784406
   0.20429920  0.52280509  0.23801920
   0.80891220  0.70656190  0.39910622
   0.03877826  0.48157369  0.00471933
   0.50670647  0.03009116  0.03518148
   0.80258438  0.01353413  0.24832801
   0.76853306  0.24162152 -0.00007705
   0.24962186  0.24654888  0.47987911
   0.49728267  0.99036958  0.48300114
   0.49113908  0.30408731  0.70944310
   0.32121561  0.09130056  0.82084076
   0.96070189  0.94958020  0.94879078
Direct configuration=     9
   0.04587956  0.85040046  0.43843429
   0.14911373  0.55569367  0.53215091
   0.31006534  0.82599059  0.80611195
   0.92669792  0.45722676  0.71905760
   0.48821509  0.47505805  0.83535156
   0.76327307  0.00898330  0.98420946
   0.75152259  0.21234646  0.30640337
   0.51608181  0.03868867  0.26608770
   0.49452835  0.28474614  0.07441268
   0.03289529  0.67459602  0.90128702
   0.74082716  0.97950156  0.47902847
   0.51700346  0.08913981  0.76281519
   0.50352540  0.28472148  0.47903913
   0.75924524  0.48442454  0.96685450
   0.70849561  0.68531202  0.16787575
   0.43396416  0.57741926  0.25927875
   0.58150693  0.81157354  0.97909642
   0.74271107  0.51372367  0.45334188
   0.76108717  0.76105134  0.75021315
   0.83879868  0.09600538  0.77506455
   0.97276027  0.50740280  0.27229869
   0.47878665  0.71036167  0.58365660
   0.25734334  0.52206543  0.02322766
   0.25952038  0.76414901  0.27159499
   0.98359646  0.24254821  0.99700795
   0.29931900  0.05114443  0.50430959
   0.25287054  0.29644399  0.76746569
   0.13982257  0.93612008  0.69218124
   0.21404407  0.23744985  0.26053724
   0.03423287  0.21177082  0.54163281
   0.01105654  0.96678866  0.14286671
   0.24590435  0.04116447  0.05329315
   0.27567809  0.28349374  0.04751339
   0.43942774  0.56426315  0.46311276
   0.96225127  0.99297425  0.59358948
   0.78735609  0.68826070  0.96004484
   0.75235865  0.45994073  0.20309490
   0.21496388  0.80263213  0.54735505
   0.74121939  0.26654156  0.52735384
   0.67407584  0.56379587  0.74211713
   0.50144378  0.79222044  0.25634470
   0.50088581  0.49665314  0.03181677
   0.20835712  0.97733227  0.27641315
   0.01466666  0.20042063  0.19610411
   0.03512264  0.26078511  0.74654671
   0.65097126  0.93830972  0.72180051
   0.54414647  0.27577150  0.28519013
   0.20617881  0.79722895  0.99440289
   0.00787326  0.42092897  0.47097407
   0.98083715  0.68006058  0.70766038
   0.27588142  0.53611610  0.77767945
   0.20287610  0.52323974  0.23833823
   0.80802963  0.70683173  0.39898646
   0.03810739  0.48171323  0.00434816
   0.50788655  0.03112058  0.03548925
   0.80153698  0.01346692  0.24785398
   0.76729699  0.24286846 -0.00165368
   0.24951698  0.24638822  0.47969571
   0.49958578  0.98999190  0.48336664
   0.48974371  0.30361352  0.70856929
   0.32067129  0.09050428  0.82118524
   0.96017040  0.95075842  0.94704834
Direct configuration=    10
   0.04528286  0.85083714  0.44055523
   0.14940458  0.55446693  0.53083108
   0.30915857  0.82645051  0.80569583
   0.92701812  0.45735669  0.72004400
   0.48908924  0.47384216  0.83490170
   0.76315523  0.00907717  0.98393958
   0.75178065  0.21280042  0.30658725
   0.51524946  0.03958612  0.26488309
   0.49423815  0.28401086  0.07375017
   0.03471836  0.67476038  0.90079347
   0.74047257  0.97987983  0.47985657
   0.51645198  0.09011757  0.76222962
   0.50231397  0.28273579  0.47915758
   0.76036805  0.48599297  0.96831260
   0.70789923  0.68609335  0.16891020
   0.43413121  0.57607382  0.25943229
   0.58237687  0.81263024  0.97829363
   0.74298694  0.51658862  0.45508655
   0.76023080  0.76202453  0.75073179
   0.84024587  0.09690771  0.77339971
   0.97374375  0.50575994  0.27233580
   0.48104815  0.70931634  0.58435307
   0.25682836  0.52168208  0.02361361
   0.25853940  0.76313212  0.27165612
   0.98232971  0.24093690  0.99796499
   0.29861729  0.05046427  0.50438240
   0.25250087  0.29687237  0.76826814
   0.13837428  0.93629978  0.69289946
   0.21466805  0.23609483  0.26028279
   0.03724873  0.21294714  0.54237314
   0.01062506  0.96714126  0.14317054
   0.24546194  0.04024811  0.05239288
   0.27481897  0.28410631  0.04683528
   0.43969274  0.56322064  0.46303495
   0.96179499  0.99396555  0.59251157
   0.78869871  0.68880755  0.95967313
   0.75290284  0.46241329  0.20362081
   0.21710531  0.80250244  0.54608192
   0.74208776  0.26607263  0.52474998
   0.67467066  0.56369834  0.74305984
   0.50092987  0.79245791  0.25432883
   0.50056052  0.49802712  0.03380773
   0.20654314  0.97755221  0.27674819
   0.01575726  0.19901373  0.19618376
   0.03527175  0.26110391  0.74684860
   0.65136720  0.93774778  0.72053260
   0.54345773  0.27426091  0.28066773
   0.20634996  0.79632788  0.99628519
   0.00694825  0.42177408  0.47267782
   0.97936921  0.67911426  0.70506419
   0.27507929  0.53566069  0.77751959
   0.20147165  0.52383752  0.23880851
   0.80724676  0.70720809  0.39879330
   0.03724428  0.48181966  0.00392854
   0.50910786  0.03213215  0.03580996
   0.80042404  0.01321396  0.24738423
   0.76597807  0.24411684 -0.00340801
   0.24942900  0.24626648  0.47954868
   0.50198159  0.98966564  0.48375201
   0.48823846  0.30302684  0.70767649
   0.31986272  0.08950495  0.82148265
   0.95967568  0.95200333  0.94505889
Direct configuration=    11
   0.04454546  0.85127321  0.44267527
   0.14984478  0.55327968  0.52955140
   0.30834386  0.82685536  0.80534569
   0.92731415  0.45745935  0.72100998
   0.48999724  0.47264222  0.83428966
   0.76292153  0.00918982  0.98382082
   0.75214864  0.21338298  0.30667445
   0.51439831  0.04038138  0.26363140
   0.49399966  0.28324065  0.07304924
   0.03656000  0.67501748  0.90038682
   0.74010455  0.98020121  0.48073376
   0.51591303  0.09115524  0.76164592
   0.50106410  0.28080858  0.47941139
   0.76148977  0.48744444  0.96982913
   0.70734708  0.68692329  0.17011036
   0.43439169  0.57457771  0.25954649
   0.58309021  0.81370224  0.97746277
   0.74321442  0.51941993  0.45690371
   0.75947416  0.76297149  0.75120512
   0.84176876  0.09787712  0.77156865
   0.97477920  0.50406278  0.27226515
   0.48335208  0.70836657  0.58507248
   0.25627303  0.52125463  0.02399386
   0.25752662  0.76216357  0.27168782
   0.98110665  0.23940997  0.99889878
   0.29795109  0.04968224  0.50441915
   0.25213580  0.29730299  0.76908941
   0.13679288  0.93650367  0.69375261
   0.21529769  0.23483438  0.26005766
   0.04023525  0.21413141  0.54304073
   0.01010039  0.96746092  0.14361080
   0.24516688  0.03931735  0.05133900
   0.27393448  0.28464069  0.04613432
   0.43994351  0.56189572  0.46293078
   0.96116022  0.99507930  0.59127574
   0.79005013  0.68959071  0.95938938
   0.75357329  0.46504474  0.20428530
   0.21952542  0.80229851  0.54473296
   0.74301220  0.26558354  0.52208760
   0.67527554  0.56358177  0.74392403
   0.50040746  0.79267322  0.25215883
   0.50021544  0.49960919  0.03601081
   0.20469722  0.97783083  0.27711997
   0.01681684  0.19751272  0.19640908
   0.03529997  0.26144291  0.74730817
   0.65186494  0.93713608  0.71930645
   0.54266729  0.27257366  0.27602598
   0.20657019  0.79540590  0.99834241
   0.00578339  0.42262585  0.47445709
   0.97780104  0.67809483  0.70222233
   0.27428068  0.53523430  0.77736806
   0.20009310  0.52459720  0.23943263
   0.80656617  0.70771372  0.39852048
   0.03619340  0.48188971  0.00346137
   0.51036575  0.03312398  0.03612922
   0.79924658  0.01278430  0.24691719
   0.76458247  0.24536676 -0.00534123
   0.24937084  0.24618344  0.47942964
   0.50443887  0.98940382  0.48415015
   0.48663049  0.30233714  0.70676903
   0.31879895  0.08830332  0.82173453
   0.95923453  0.95332541  0.94283872
Direct configuration=    12
   0.04366949  0.85170326  0.44479234
   0.15044062  0.55213519  0.52831232
   0.30761979  0.82720613  0.80505987
   0.92758625  0.45753478  0.72195592
   0.49094007  0.47146206  0.83353296
   0.76257176  0.00932520  0.98384659
   0.75262466  0.21409264  0.30666287
   0.51353138  0.04106938  0.26233649
   0.49381136  0.28244116  0.07229433
   0.03841301  0.67536728  0.90005200
   0.73972361  0.98046618  0.48165696
   0.51539162  0.09224196  0.76106492
   0.49978489  0.27894224  0.47977626
   0.76261097  0.48877578  0.97140430
   0.70684044  0.68780478  0.17147475
   0.43474593  0.57293338  0.25962023
   0.58364349  0.81478881  0.97660634
   0.74339839  0.52220926  0.45879561
   0.75882553  0.76388330  0.75163369
   0.84336529  0.09891093  0.76957892
   0.97586197  0.50230954  0.27208828
   0.48569460  0.70750831  0.58581096
   0.25567937  0.52078330  0.02436930
   0.25648281  0.76124639  0.27168989
   0.97992597  0.23797098  0.99980768
   0.29732787  0.04879082  0.50442008
   0.25177546  0.29773362  0.76993260
   0.13508570  0.93672517  0.69473919
   0.21593491  0.23366619  0.25986034
   0.04318473  0.21532256  0.54363435
   0.00947994  0.96774315  0.14418207
   0.24501759  0.03837128  0.05013366
   0.27302331  0.28509463  0.04540861
   0.44018652  0.56030715  0.46282226
   0.96034975  0.99632332  0.58988723
   0.79141174  0.69063499  0.95920527
   0.75437241  0.46782238  0.20508798
   0.22219741  0.80203901  0.54330749
   0.74397827  0.26507804  0.51938095
   0.67588268  0.56344142  0.74470806
   0.49986981  0.79286288  0.24984299
   0.49984648  0.50138330  0.03838121
   0.20282684  0.97816113  0.27752740
   0.01783930  0.19592627  0.19677841
   0.03520122  0.26179570  0.74792784
   0.65244294  0.93651122  0.71812891
   0.54176418  0.27071229  0.27136439
   0.20683786  0.79447622  1.00056615
   0.00437223  0.42347438  0.47630553
   0.97614626  0.67701047  0.69918294
   0.27349357  0.53483609  0.77723071
   0.19874541  0.52551456  0.24020915
   0.80599185  0.70837028  0.39816327
   0.03494998  0.48191447  0.00294670
   0.51165460  0.03409389  0.03642943
   0.79800102  0.01218778  0.24644751
   0.76311381  0.24661816 -0.00745352
   0.24935649  0.24613765  0.47933005
   0.50693605  0.98922101  0.48455553
   0.48492311  0.30154692  0.70583564
   0.31747976  0.08690094  0.82193572
   0.95886242  0.95473291  0.94041035
Direct configuration=    13
   0.04265854  0.85212116  0.44690612
   0.15119660  0.55103651  0.52711471
   0.30698416  0.82750342  0.80483626
   0.92783375  0.45758285  0.72288181
   0.49191855  0.47030614  0.83264710
   0.76210606  0.00948726  0.98401035
   0.75320533  0.21492597  0.30654919
   0.51265193  0.04164443  0.26100472
   0.49367008  0.28161732  0.07146653
   0.04026904  0.67580892  0.89977498
   0.73933081  0.98067523  0.48262251
   0.51489040  0.09336804  0.76048825
   0.49848221  0.27713744  0.48023364
   0.76373234  0.48998737  0.97303861
   0.70637954  0.68874161  0.17300343
   0.43519235  0.57114374  0.25965168
   0.58403378  0.81588915  0.97572667
   0.74354155  0.52494965  0.46076435
   0.75829473  0.76474925  0.75201945
   0.84503005  0.10000569  0.76743757
   0.97698418  0.50050130  0.27180776
   0.48807036  0.70673592  0.58656319
   0.25504922  0.52026729  0.02474040
   0.25540890  0.76038338  0.27166295
   0.97878697  0.23662274  1.00068842
   0.29675290  0.04778367  0.50438555
   0.25141869  0.29816258  0.77080081
   0.13325970  0.93695969  0.69585644
   0.21658193  0.23258891  0.25969016
   0.04608895  0.21652099  0.54415350